# vtk DataFile Version 2.0
vtkObjects
ASCII
DATASET UNSTRUCTURED_GRID
POINTS 800 float
-24.623 -125.633 4.894
-18.623 -125.633 4.894
-24.623 -119.633 4.894
-18.623 -119.633 4.894
-24.623 -125.633 10.894
-18.623 -125.633 10.894
-24.623 -119.633 10.894
-18.623 -119.633 10.894
-21.623 -124.487 3.0399
-21.623 -120.779 3.0399
-21.623 -124.487 12.7481
-21.623 -120.779 12.7481
-23.4771 -127.487 7.894
-19.7689 -127.487 7.894
-23.4771 -117.779 7.894
-19.7689 -117.779 7.894
-26.4771 -122.633 6.0399
-26.4771 -122.633 9.7481
-16.7689 -122.633 6.0399
-16.7689 -122.633 9.7481
-24.623 -125.633 10.894
-18.623 -125.633 10.894
-24.623 -119.633 10.894
-18.623 -119.633 10.894
-24.623 -125.633 16.894
-18.623 -125.633 16.894
-24.623 -119.633 16.894
-18.623 -119.633 16.894
-21.623 -124.487 9.0399
-21.623 -120.779 9.0399
-21.623 -124.487 18.7481
-21.623 -120.779 18.7481
-23.4771 -127.487 13.894
-19.7689 -127.487 13.894
-23.4771 -117.779 13.894
-19.7689 -117.779 13.894
-26.4771 -122.633 12.0399
-26.4771 -122.633 15.7481
-16.7689 -122.633 12.0399
-16.7689 -122.633 15.7481
-16.141 -77.528 10.621
-10.141 -77.528 10.621
-16.141 -71.528 10.621
-10.141 -71.528 10.621
-16.141 -77.528 16.621
-10.141 -77.528 16.621
-16.141 -71.528 16.621
-10.141 -71.528 16.621
-13.141 -76.3821 8.7669
-13.141 -72.6739 8.7669
-13.141 -76.3821 18.4751
-13.141 -72.6739 18.4751
-14.9951 -79.3821 13.621
-11.2869 -79.3821 13.621
-14.9951 -69.6739 13.621
-11.2869 -69.6739 13.621
-17.9951 -74.528 11.7669
-17.9951 -74.528 15.4751
-8.2869 -74.528 11.7669
-8.2869 -74.528 15.4751
-16.141 -77.528 16.621
-10.141 -77.528 16.621
-16.141 -71.528 16.621
-10.141 -71.528 16.621
-16.141 -77.528 22.621
-10.141 -77.528 22.621
-16.141 -71.528 22.621
-10.141 -71.528 22.621
-13.141 -76.3821 14.7669
-13.141 -72.6739 14.7669
-13.141 -76.3821 24.4751
-13.141 -72.6739 24.4751
-14.9951 -79.3821 19.621
-11.2869 -79.3821 19.621
-14.9951 -69.6739 19.621
-11.2869 -69.6739 19.621
-17.9951 -74.528 17.7669
-17.9951 -74.528 21.4751
-8.2869 -74.528 17.7669
-8.2869 -74.528 21.4751
-16.141 -77.528 5.621
-10.141 -77.528 5.621
-16.141 -71.528 5.621
-10.141 -71.528 5.621
-16.141 -77.528 11.621
-10.141 -77.528 11.621
-16.141 -71.528 11.621
-10.141 -71.528 11.621
-13.141 -76.3821 3.7669
-13.141 -72.6739 3.7669
-13.141 -76.3821 13.4751
-13.141 -72.6739 13.4751
-14.9951 -79.3821 8.621
-11.2869 -79.3821 8.621
-14.9951 -69.6739 8.621
-11.2869 -69.6739 8.621
-17.9951 -74.528 6.7669
-17.9951 -74.528 10.4751
-8.2869 -74.528 6.7669
-8.2869 -74.528 10.4751
-16.141 -77.528 11.621
-10.141 -77.528 11.621
-16.141 -71.528 11.621
-10.141 -71.528 11.621
-16.141 -77.528 17.621
-10.141 -77.528 17.621
-16.141 -71.528 17.621
-10.141 -71.528 17.621
-13.141 -76.3821 9.7669
-13.141 -72.6739 9.7669
-13.141 -76.3821 19.4751
-13.141 -72.6739 19.4751
-14.9951 -79.3821 14.621
-11.2869 -79.3821 14.621
-14.9951 -69.6739 14.621
-11.2869 -69.6739 14.621
-17.9951 -74.528 12.7669
-17.9951 -74.528 16.4751
-8.2869 -74.528 12.7669
-8.2869 -74.528 16.4751
47 -83 -31
53 -83 -31
47 -77 -31
53 -77 -31
47 -83 -25
53 -83 -25
47 -77 -25
53 -77 -25
50 -81.8541 -32.8541
50 -78.1459 -32.8541
50 -81.8541 -23.1459
50 -78.1459 -23.1459
48.1459 -84.8541 -28
51.8541 -84.8541 -28
48.1459 -75.1459 -28
51.8541 -75.1459 -28
45.1459 -80 -29.8541
45.1459 -80 -26.1459
54.8541 -80 -29.8541
54.8541 -80 -26.1459
47 -83 -25
53 -83 -25
47 -77 -25
53 -77 -25
47 -83 -19
53 -83 -19
47 -77 -19
53 -77 -19
50 -81.8541 -26.8541
50 -78.1459 -26.8541
50 -81.8541 -17.1459
50 -78.1459 -17.1459
48.1459 -84.8541 -22
51.8541 -84.8541 -22
48.1459 -75.1459 -22
51.8541 -75.1459 -22
45.1459 -80 -23.8541
45.1459 -80 -20.1459
54.8541 -80 -23.8541
54.8541 -80 -20.1459
-10.208 -43.878 -2.369
-4.208 -43.878 -2.369
-10.208 -37.878 -2.369
-4.208 -37.878 -2.369
-10.208 -43.878 3.631
-4.208 -43.878 3.631
-10.208 -37.878 3.631
-4.208 -37.878 3.631
-7.208 -42.7321 -4.2231
-7.208 -39.0239 -4.2231
-7.208 -42.7321 5.4851
-7.208 -39.0239 5.4851
-9.0621 -45.7321 0.631
-5.3539 -45.7321 0.631
-9.0621 -36.0239 0.631
-5.3539 -36.0239 0.631
-12.0621 -40.878 -1.2231
-12.0621 -40.878 2.4851
-2.3539 -40.878 -1.2231
-2.3539 -40.878 2.4851
-10.208 -43.878 3.631
-4.208 -43.878 3.631
-10.208 -37.878 3.631
-4.208 -37.878 3.631
-10.208 -43.878 9.631
-4.208 -43.878 9.631
-10.208 -37.878 9.631
-4.208 -37.878 9.631
-7.208 -42.7321 1.7769
-7.208 -39.0239 1.7769
-7.208 -42.7321 11.4851
-7.208 -39.0239 11.4851
-9.0621 -45.7321 6.631
-5.3539 -45.7321 6.631
-9.0621 -36.0239 6.631
-5.3539 -36.0239 6.631
-12.0621 -40.878 4.7769
-12.0621 -40.878 8.4851
-2.3539 -40.878 4.7769
-2.3539 -40.878 8.4851
4.208 37.878 -9.631
10.208 37.878 -9.631
4.208 43.878 -9.631
10.208 43.878 -9.631
4.208 37.878 -3.631
10.208 37.878 -3.631
4.208 43.878 -3.631
10.208 43.878 -3.631
7.208 39.0239 -11.4851
7.208 42.7321 -11.4851
7.208 39.0239 -1.7769
7.208 42.7321 -1.7769
5.3539 36.0239 -6.631
9.0621 36.0239 -6.631
5.3539 45.7321 -6.631
9.0621 45.7321 -6.631
2.3539 40.878 -8.4851
2.3539 40.878 -4.7769
12.0621 40.878 -8.4851
12.0621 40.878 -4.7769
4.208 37.878 -3.631
10.208 37.878 -3.631
4.208 43.878 -3.631
10.208 43.878 -3.631
4.208 37.878 2.369
10.208 37.878 2.369
4.208 43.878 2.369
10.208 43.878 2.369
7.208 39.0239 -5.4851
7.208 42.7321 -5.4851
7.208 39.0239 4.2231
7.208 42.7321 4.2231
5.3539 36.0239 -0.631
9.0621 36.0239 -0.631
5.3539 45.7321 -0.631
9.0621 45.7321 -0.631
2.3539 40.878 -2.4851
2.3539 40.878 1.2231
12.0621 40.878 -2.4851
12.0621 40.878 1.2231
8.234 60.713 -1.66
14.234 60.713 -1.66
8.234 66.713 -1.66
14.234 66.713 -1.66
8.234 60.713 4.34
14.234 60.713 4.34
8.234 66.713 4.34
14.234 66.713 4.34
11.234 61.8589 -3.5141
11.234 65.5671 -3.5141
11.234 61.8589 6.1941
11.234 65.5671 6.1941
9.3799 58.8589 1.34
13.0881 58.8589 1.34
9.3799 68.5671 1.34
13.0881 68.5671 1.34
6.3799 63.713 -0.514102
6.3799 63.713 3.1941
16.0881 63.713 -0.514102
16.0881 63.713 3.1941
8.234 60.713 4.34
14.234 60.713 4.34
8.234 66.713 4.34
14.234 66.713 4.34
8.234 60.713 10.34
14.234 60.713 10.34
8.234 66.713 10.34
14.234 66.713 10.34
11.234 61.8589 2.4859
11.234 65.5671 2.4859
11.234 61.8589 12.1941
11.234 65.5671 12.1941
9.3799 58.8589 7.34
13.0881 58.8589 7.34
9.3799 68.5671 7.34
13.0881 68.5671 7.34
6.3799 63.713 5.4859
6.3799 63.713 9.1941
16.0881 63.713 5.4859
16.0881 63.713 9.1941
8.234 60.713 -6.66
14.234 60.713 -6.66
8.234 66.713 -6.66
14.234 66.713 -6.66
8.234 60.713 -0.66
14.234 60.713 -0.66
8.234 66.713 -0.66
14.234 66.713 -0.66
11.234 61.8589 -8.5141
11.234 65.5671 -8.5141
11.234 61.8589 1.1941
11.234 65.5671 1.1941
9.3799 58.8589 -3.66
13.0881 58.8589 -3.66
9.3799 68.5671 -3.66
13.0881 68.5671 -3.66
6.3799 63.713 -5.5141
6.3799 63.713 -1.8059
16.0881 63.713 -5.5141
16.0881 63.713 -1.8059
8.234 60.713 -0.66
14.234 60.713 -0.66
8.234 66.713 -0.66
14.234 66.713 -0.66
8.234 60.713 5.34
14.234 60.713 5.34
8.234 66.713 5.34
14.234 66.713 5.34
11.234 61.8589 -2.5141
11.234 65.5671 -2.5141
11.234 61.8589 7.1941
11.234 65.5671 7.1941
9.3799 58.8589 2.34
13.0881 58.8589 2.34
9.3799 68.5671 2.34
13.0881 68.5671 2.34
6.3799 63.713 0.485898
6.3799 63.713 4.1941
16.0881 63.713 0.485898
16.0881 63.713 4.1941
-53 77 19
-47 77 19
-53 83 19
-47 83 19
-53 77 25
-47 77 25
-53 83 25
-47 83 25
-50 78.1459 17.1459
-50 81.8541 17.1459
-50 78.1459 26.8541
-50 81.8541 26.8541
-51.8541 75.1459 22
-48.1459 75.1459 22
-51.8541 84.8541 22
-48.1459 84.8541 22
-54.8541 80 20.1459
-54.8541 80 23.8541
-45.1459 80 20.1459
-45.1459 80 23.8541
-53 77 25
-47 77 25
-53 83 25
-47 83 25
-53 77 31
-47 77 31
-53 83 31
-47 83 31
-50 78.1459 23.1459
-50 81.8541 23.1459
-50 78.1459 32.8541
-50 81.8541 32.8541
-51.8541 75.1459 28
-48.1459 75.1459 28
-51.8541 84.8541 28
-48.1459 84.8541 28
-54.8541 80 26.1459
-54.8541 80 29.8541
-45.1459 80 26.1459
-45.1459 80 29.8541
18.623 119.633 -16.894
24.623 119.633 -16.894
18.623 125.633 -16.894
24.623 125.633 -16.894
18.623 119.633 -10.894
24.623 119.633 -10.894
18.623 125.633 -10.894
24.623 125.633 -10.894
21.623 120.779 -18.7481
21.623 124.487 -18.7481
21.623 120.779 -9.0399
21.623 124.487 -9.0399
19.7689 117.779 -13.894
23.4771 117.779 -13.894
19.7689 127.487 -13.894
23.4771 127.487 -13.894
16.7689 122.633 -15.7481
16.7689 122.633 -12.0399
26.4771 122.633 -15.7481
26.4771 122.633 -12.0399
18.623 119.633 -10.894
24.623 119.633 -10.894
18.623 125.633 -10.894
24.623 125.633 -10.894
18.623 119.633 -4.894
24.623 119.633 -4.894
18.623 125.633 -4.894
24.623 125.633 -4.894
21.623 120.779 -12.7481
21.623 124.487 -12.7481
21.623 120.779 -3.0399
21.623 124.487 -3.0399
19.7689 117.779 -7.894
23.4771 117.779 -7.894
19.7689 127.487 -7.894
23.4771 127.487 -7.894
16.7689 122.633 -9.7481
16.7689 122.633 -6.0399
26.4771 122.633 -9.7481
26.4771 122.633 -6.0399
110.514 -264.78 57.127
116.514 -264.78 57.127
110.514 -258.78 57.127
116.514 -258.78 57.127
110.514 -264.78 63.127
116.514 -264.78 63.127
110.514 -258.78 63.127
116.514 -258.78 63.127
113.514 -263.634 55.2729
113.514 -259.926 55.2729
113.514 -263.634 64.9811
113.514 -259.926 64.9811
111.66 -266.634 60.127
115.368 -266.634 60.127
111.66 -256.926 60.127
115.368 -256.926 60.127
108.66 -261.78 58.2729
108.66 -261.78 61.9811
118.368 -261.78 58.2729
118.368 -261.78 61.9811
110.514 -264.78 63.127
116.514 -264.78 63.127
110.514 -258.78 63.127
116.514 -258.78 63.127
110.514 -264.78 69.127
116.514 -264.78 69.127
110.514 -258.78 69.127
116.514 -258.78 69.127
113.514 -263.634 61.2729
113.514 -259.926 61.2729
113.514 -263.634 70.9811
113.514 -259.926 70.9811
111.66 -266.634 66.127
115.368 -266.634 66.127
111.66 -256.926 66.127
115.368 -256.926 66.127
108.66 -261.78 64.2729
108.66 -261.78 67.9811
118.368 -261.78 64.2729
118.368 -261.78 67.9811
145.775 -120.129 89.095
151.775 -120.129 89.095
145.775 -114.129 89.095
151.775 -114.129 89.095
145.775 -120.129 95.095
151.775 -120.129 95.095
145.775 -114.129 95.095
151.775 -114.129 95.095
148.775 -118.983 87.2409
148.775 -115.275 87.2409
148.775 -118.983 96.9491
148.775 -115.275 96.9491
146.921 -121.983 92.095
150.629 -121.983 92.095
146.921 -112.275 92.095
150.629 -112.275 92.095
[...]
CELL_DATA 880
SCALARS Node_Number float 1
LOOKUP_TABLE default
1 1 1 1 1 1 1 1 1 
1 1 1 1 1 1 1 1 1 1 
1 1 1 1 1 1 1 1 1 1 
1 1 1 1 1 1 1 1 1 1 
1 1 1 1 1 2 2 2 2 2 
2 2 2 2 2 2 2 2 2 2 
2 2 2 2 2 2 2 2 2 2 
2 2 2 2 2 2 2 2 2 2 
2 2 2 2 2 2 2 2 2 3 
3 3 3 3 3 3 3 3 3 3 
3 3 3 3 3 3 3 3 3 3 
3 3 3 3 3 3 3 3 3 3 
3 3 3 3 3 3 3 3 3 3 
3 3 3 4 4 4 4 4 4 4 
4 4 4 4 4 4 4 4 4 4 
4 4 4 4 4 4 4 4 4 4 
4 4 4 4 4 4 4 4 4 4 
4 4 4 4 4 4 4 5 5 5 
5 5 5 5 5 5 5 5 5 5 
5 5 5 5 5 5 5 5 5 5 
5 5 5 5 5 5 5 5 5 5 
5 5 5 5 5 5 5 5 5 5 
5 6 6 6 6 6 6 6 6 6 
6 6 6 6 6 6 6 6 6 6 
6 6 6 6 6 6 6 6 6 6 
6 6 6 6 6 6 6 6 6 6 
6 6 6 6 6 7 7 7 7 7 
7 7 7 7 7 7 7 7 7 7 
7 7 7 7 7 7 7 7 7 7 
7 7 7 7 7 7 7 7 7 7 
7 7 7 7 7 7 7 7 7 8 
8 8 8 8 8 8 8 8 8 8 
8 8 8 8 8 8 8 8 8 8 
8 8 8 8 8 8 8 8 8 8 
8 8 8 8 8 8 8 8 8 8 
8 8 8 9 9 9 9 9 9 9 
9 9 9 9 9 9 9 9 9 9 
9 9 9 9 9 9 9 9 9 9 
9 9 9 9 9 9 9 9 9 9 
9 9 9 9 9 9 9 10 10 10 
10 10 10 10 10 10 10 10 10 10 
10 10 10 10 10 10 10 10 10 10 
10 10 10 10 10 10 10 10 10 10 
10 10 10 10 10 10 10 10 10 10 
10 11 11 11 11 11 11 11 11 11 
11 11 11 11 11 11 11 11 11 11 
11 11 11 11 11 11 11 11 11 11 
11 11 11 11 11 11 11 11 11 11 
11 11 11 11 11 12 12 12 12 12 
12 12 12 12 12 12 12 12 12 12 
12 12 12 12 12 12 12 12 12 12 
12 12 12 12 12 12 12 12 12 12 
12 12 12 12 12 12 12 12 12 13 
13 13 13 13 13 13 13 13 13 13 
13 13 13 13 13 13 13 13 13 13 
13 13 13 13 13 13 13 13 13 13 
13 13 13 13 13 13 13 13 13 13 
13 13 13 14 14 14 14 14 14 14 
14 14 14 14 14 14 14 14 14 14 
14 14 14 14 14 14 14 14 14 14 
14 14 14 14 14 14 14 14 14 14 
14 14 14 14 14 14 14 15 15 15 
15 15 15 15 15 15 15 15 15 15 
15 15 15 15 15 15 15 15 15 15 
15 15 15 15 15 15 15 15 15 15 
15 15 15 15 15 15 15 15 15 15 
15 16 16 16 16 16 16 16 16 16 
16 16 16 16 16 16 16 16 16 16 
16 16 16 16 16 16 16 16 16 16 
16 16 16 16 16 16 16 16 16 16 
16 16 16 16 16 17 17 17 17 17 
17 17 17 17 17 17 17 17 17 17 
17 17 17 17 17 17 17 17 17 17 
17 17 17 17 17 17 17 17 17 17 
17 17 17 17 17 17 17 17 17 18 
18 18 18 18 18 18 18 18 18 18 
18 18 18 18 18 18 18 18 18 18 
18 18 18 18 18 18 18 18 18 18 
18 18 18 18 18 18 18 18 18 18 
18 18 18 19 19 19 19 19 19 19 
19 19 19 19 19 19 19 19 19 19 
19 19 19 19 19 19 19 19 19 19 
19 19 19 19 19 19 19 19 19 19 
19 19 19 19 19 19 19 20 20 20 
20 20 20 20 20 20 20 20 20 20 
20 20 20 20 20 20 20 20 20 20 
20 20 20 20 20 20 20 20 20 20 
20 20 20 20 20 20 20 20 20 20 
20 SCALARS Node_Pressure_MPa float 1
LOOKUP_TABLE default
55.6891 55.6891 55.6891 55.6891 55.6891 55.6891 55.6891 55.6891 55.6891 
55.6891 55.6891 55.6891 55.6891 55.6891 55.6891 55.6891 55.6891 55.6891 55.6891 
55.6891 55.6891 55.6891 55.6891 55.6891 55.6891 55.6891 55.6891 55.6891 55.6891 
55.6891 55.6891 55.6891 55.6891 55.6891 55.6891 55.6891 55.6891 55.6891 55.6891 
55.6891 55.6891 55.6891 55.6891 55.6891 55.6884 55.6884 55.6884 55.6884 55.6884 
55.6884 55.6884 55.6884 55.6884 55.6884 55.6884 55.6884 55.6884 55.6884 55.6884 
55.6884 55.6884 55.6884 55.6884 55.6884 55.6884 55.6884 55.6884 55.6884 55.6884 
55.6884 55.6884 55.6884 55.6884 55.6884 55.6884 55.6884 55.6884 55.6884 55.6884 
55.6884 55.6884 55.6884 55.6884 55.6884 55.6884 55.6884 55.6884 55.6884 55.6872 
55.6872 55.6872 55.6872 55.6872 55.6872 55.6872 55.6872 55.6872 55.6872 55.6872 
55.6872 55.6872 55.6872 55.6872 55.6872 55.6872 55.6872 55.6872 55.6872 55.6872 
55.6872 55.6872 55.6872 55.6872 55.6872 55.6872 55.6872 55.6872 55.6872 55.6872 
55.6872 55.6872 55.6872 55.6872 55.6872 55.6872 55.6872 55.6872 55.6872 55.6872 
55.6872 55.6872 55.6872 55.6869 55.6869 55.6869 55.6869 55.6869 55.6869 55.6869 
55.6869 55.6869 55.6869 55.6869 55.6869 55.6869 55.6869 55.6869 55.6869 55.6869 
55.6869 55.6869 55.6869 55.6869 55.6869 55.6869 55.6869 55.6869 55.6869 55.6869 
55.6869 55.6869 55.6869 55.6869 55.6869 55.6869 55.6869 55.6869 55.6869 55.6869 
55.6869 55.6869 55.6869 55.6869 55.6869 55.6869 55.6869 55.6884 55.6884 55.6884 
55.6884 55.6884 55.6884 55.6884 55.6884 55.6884 55.6884 55.6884 55.6884 55.6884 
55.6884 55.6884 55.6884 55.6884 55.6884 55.6884 55.6884 55.6884 55.6884 55.6884 
55.6884 55.6884 55.6884 55.6884 55.6884 55.6884 55.6884 55.6884 55.6884 55.6884 
55.6884 55.6884 55.6884 55.6884 55.6884 55.6884 55.6884 55.6884 55.6884 55.6884 
55.6884 55.6924 55.6924 55.6924 55.6924 55.6924 55.6924 55.6924 55.6924 55.6924 
55.6924 55.6924 55.6924 55.6924 55.6924 55.6924 55.6924 55.6924 55.6924 55.6924 
55.6924 55.6924 55.6924 55.6924 55.6924 55.6924 55.6924 55.6924 55.6924 55.6924 
55.6924 55.6924 55.6924 55.6924 55.6924 55.6924 55.6924 55.6924 55.6924 55.6924 
55.6924 55.6924 55.6924 55.6924 55.6924 55.6921 55.6921 55.6921 55.6921 55.6921 
55.6921 55.6921 55.6921 55.6921 55.6921 55.6921 55.6921 55.6921 55.6921 55.6921 
55.6921 55.6921 55.6921 55.6921 55.6921 55.6921 55.6921 55.6921 55.6921 55.6921 
55.6921 55.6921 55.6921 55.6921 55.6921 55.6921 55.6921 55.6921 55.6921 55.6921 
55.6921 55.6921 55.6921 55.6921 55.6921 55.6921 55.6921 55.6921 55.6921 55.6909 
55.6909 55.6909 55.6909 55.6909 55.6909 55.6909 55.6909 55.6909 55.6909 55.6909 
55.6909 55.6909 55.6909 55.6909 55.6909 55.6909 55.6909 55.6909 55.6909 55.6909 
55.6909 55.6909 55.6909 55.6909 55.6909 55.6909 55.6909 55.6909 55.6909 55.6909 
55.6909 55.6909 55.6909 55.6909 55.6909 55.6909 55.6909 55.6909 55.6909 55.6909 
55.6909 55.6909 55.6909 55.6905 55.6905 55.6905 55.6905 55.6905 55.6905 55.6905 
55.6905 55.6905 55.6905 55.6905 55.6905 55.6905 55.6905 55.6905 55.6905 55.6905 
55.6905 55.6905 55.6905 55.6905 55.6905 55.6905 55.6905 55.6905 55.6905 55.6905 
55.6905 55.6905 55.6905 55.6905 55.6905 55.6905 55.6905 55.6905 55.6905 55.6905 
55.6905 55.6905 55.6905 55.6905 55.6905 55.6905 55.6905 55.6921 55.6921 55.6921 
55.6921 55.6921 55.6921 55.6921 55.6921 55.6921 55.6921 55.6921 55.6921 55.6921 
55.6921 55.6921 55.6921 55.6921 55.6921 55.6921 55.6921 55.6921 55.6921 55.6921 
55.6921 55.6921 55.6921 55.6921 55.6921 55.6921 55.6921 55.6921 55.6921 55.6921 
55.6921 55.6921 55.6921 55.6921 55.6921 55.6921 55.6921 55.6921 55.6921 55.6921 
55.6921 55.6833 55.6833 55.6833 55.6833 55.6833 55.6833 55.6833 55.6833 55.6833 
55.6833 55.6833 55.6833 55.6833 55.6833 55.6833 55.6833 55.6833 55.6833 55.6833 
55.6833 55.6833 55.6833 55.6833 55.6833 55.6833 55.6833 55.6833 55.6833 55.6833 
55.6833 55.6833 55.6833 55.6833 55.6833 55.6833 55.6833 55.6833 55.6833 55.6833 
55.6833 55.6833 55.6833 55.6833 55.6833 55.6852 55.6852 55.6852 55.6852 55.6852 
55.6852 55.6852 55.6852 55.6852 55.6852 55.6852 55.6852 55.6852 55.6852 55.6852 
55.6852 55.6852 55.6852 55.6852 55.6852 55.6852 55.6852 55.6852 55.6852 55.6852 
55.6852 55.6852 55.6852 55.6852 55.6852 55.6852 55.6852 55.6852 55.6852 55.6852 
55.6852 55.6852 55.6852 55.6852 55.6852 55.6852 55.6852 55.6852 55.6852 55.6862 
55.6862 55.6862 55.6862 55.6862 55.6862 55.6862 55.6862 55.6862 55.6862 55.6862 
55.6862 55.6862 55.6862 55.6862 55.6862 55.6862 55.6862 55.6862 55.6862 55.6862 
55.6862 55.6862 55.6862 55.6862 55.6862 55.6862 55.6862 55.6862 55.6862 55.6862 
55.6862 55.6862 55.6862 55.6862 55.6862 55.6862 55.6862 55.6862 55.6862 55.6862 
55.6862 55.6862 55.6862 55.6852 55.6852 55.6852 55.6852 55.6852 55.6852 55.6852 
55.6852 55.6852 55.6852 55.6852 55.6852 55.6852 55.6852 55.6852 55.6852 55.6852 
55.6852 55.6852 55.6852 55.6852 55.6852 55.6852 55.6852 55.6852 55.6852 55.6852 
55.6852 55.6852 55.6852 55.6852 55.6852 55.6852 55.6852 55.6852 55.6852 55.6852 
55.6852 55.6852 55.6852 55.6852 55.6852 55.6852 55.6852 55.6833 55.6833 55.6833 
55.6833 55.6833 55.6833 55.6833 55.6833 55.6833 55.6833 55.6833 55.6833 55.6833 
55.6833 55.6833 55.6833 55.6833 55.6833 55.6833 55.6833 55.6833 55.6833 55.6833 
55.6833 55.6833 55.6833 55.6833 55.6833 55.6833 55.6833 55.6833 55.6833 55.6833 
55.6833 55.6833 55.6833 55.6833 55.6833 55.6833 55.6833 55.6833 55.6833 55.6833 
55.6833 55.6867 55.6867 55.6867 55.6867 55.6867 55.6867 55.6867 55.6867 55.6867 
55.6867 55.6867 55.6867 55.6867 55.6867 55.6867 55.6867 55.6867 55.6867 55.6867 
55.6867 55.6867 55.6867 55.6867 55.6867 55.6867 55.6867 55.6867 55.6867 55.6867 
55.6867 55.6867 55.6867 55.6867 55.6867 55.6867 55.6867 55.6867 55.6867 55.6867 
55.6867 55.6867 55.6867 55.6867 55.6867 55.6884 55.6884 55.6884 55.6884 55.6884 
55.6884 55.6884 55.6884 55.6884 55.6884 55.6884 55.6884 55.6884 55.6884 55.6884 
55.6884 55.6884 55.6884 55.6884 55.6884 55.6884 55.6884 55.6884 55.6884 55.6884 
55.6884 55.6884 55.6884 55.6884 55.6884 55.6884 55.6884 55.6884 55.6884 55.6884 
55.6884 55.6884 55.6884 55.6884 55.6884 55.6884 55.6884 55.6884 55.6884 55.6868 
55.6868 55.6868 55.6868 55.6868 55.6868 55.6868 55.6868 55.6868 55.6868 55.6868 
55.6868 55.6868 55.6868 55.6868 55.6868 55.6868 55.6868 55.6868 55.6868 55.6868 
55.6868 55.6868 55.6868 55.6868 55.6868 55.6868 55.6868 55.6868 55.6868 55.6868 
55.6868 55.6868 55.6868 55.6868 55.6868 55.6868 55.6868 55.6868 55.6868 55.6868 
55.6868 55.6868 55.6868 55.6895 55.6895 55.6895 55.6895 55.6895 55.6895 55.6895 
55.6895 55.6895 55.6895 55.6895 55.6895 55.6895 55.6895 55.6895 55.6895 55.6895 
55.6895 55.6895 55.6895 55.6895 55.6895 55.6895 55.6895 55.6895 55.6895 55.6895 
55.6895 55.6895 55.6895 55.6895 55.6895 55.6895 55.6895 55.6895 55.6895 55.6895 
55.6895 55.6895 55.6895 55.6895 55.6895 55.6895 55.6895 55.6884 55.6884 55.6884 
55.6884 55.6884 55.6884 55.6884 55.6884 55.6884 55.6884 55.6884 55.6884 55.6884 
55.6884 55.6884 55.6884 55.6884 55.6884 55.6884 55.6884 55.6884 55.6884 55.6884 
55.6884 55.6884 55.6884 55.6884 55.6884 55.6884 55.6884 55.6884 55.6884 55.6884 
55.6884 55.6884 55.6884 55.6884 55.6884 55.6884 55.6884 55.6884 55.6884 55.6884 
55.6884 SCALARS Node_Temperature_K float 1
LOOKUP_TABLE default
368.15 368.15 368.15 368.15 368.15 368.15 368.15 368.15 368.15 
368.15 368.15 368.15 368.15 368.15 368.15 368.15 368.15 368.15 368.15 
368.15 368.15 368.15 368.15 368.15 368.15 368.15 368.15 368.15 368.15 
368.15 368.15 368.15 368.15 368.15 368.15 368.15 368.15 368.15 368.15 
368.15 368.15 368.15 368.15 368.15 370.472 370.472 370.472 370.472 370.472 
370.472 370.472 370.472 370.472 370.472 370.472 370.472 370.472 370.472 370.472 
370.472 370.472 370.472 370.472 370.472 370.472 370.472 370.472 370.472 370.472 
370.472 370.472 370.472 370.472 370.472 370.472 370.472 370.472 370.472 370.472 
370.472 370.472 370.472 370.472 370.472 370.472 370.472 370.472 370.472 370.419 
370.419 370.419 370.419 370.419 370.419 370.419 370.419 370.419 370.419 370.419 
370.419 370.419 370.419 370.419 370.419 370.419 370.419 370.419 370.419 370.419 
370.419 370.419 370.419 370.419 370.419 370.419 370.419 370.419 370.419 370.419 
370.419 370.419 370.419 370.419 370.419 370.419 370.419 370.419 370.419 370.419 
370.419 370.419 370.419 401.064 401.064 401.064 401.064 401.064 401.064 401.064 
401.064 401.064 401.064 401.064 401.064 401.064 401.064 401.064 401.064 401.064 
401.064 401.064 401.064 401.064 401.064 401.064 401.064 401.064 401.064 401.064 
401.064 401.064 401.064 401.064 401.064 401.064 401.064 401.064 401.064 401.064 
401.064 401.064 401.064 401.064 401.064 401.064 401.064 419.411 419.411 419.411 
419.411 419.411 419.411 419.411 419.411 419.411 419.411 419.411 419.411 419.411 
419.411 419.411 419.411 419.411 419.411 419.411 419.411 419.411 419.411 419.411 
419.411 419.411 419.411 419.411 419.411 419.411 419.411 419.411 419.411 419.411 
419.411 419.411 419.411 419.411 419.411 419.411 419.411 419.411 419.411 419.411 
419.411 368.15 368.15 368.15 368.15 368.15 368.15 368.15 368.15 368.15 
368.15 368.15 368.15 368.15 368.15 368.15 368.15 368.15 368.15 368.15 
368.15 368.15 368.15 368.15 368.15 368.15 368.15 368.15 368.15 368.15 
368.15 368.15 368.15 368.15 368.15 368.15 368.15 368.15 368.15 368.15 
368.15 368.15 368.15 368.15 368.15 369.221 369.221 369.221 369.221 369.221 
369.221 369.221 369.221 369.221 369.221 369.221 369.221 369.221 369.221 369.221 
369.221 369.221 369.221 369.221 369.221 369.221 369.221 369.221 369.221 369.221 
369.221 369.221 369.221 369.221 369.221 369.221 369.221 369.221 369.221 369.221 
369.221 369.221 369.221 369.221 369.221 369.221 369.221 369.221 369.221 369.162 
369.162 369.162 369.162 369.162 369.162 369.162 369.162 369.162 369.162 369.162 
369.162 369.162 369.162 369.162 369.162 369.162 369.162 369.162 369.162 369.162 
369.162 369.162 369.162 369.162 369.162 369.162 369.162 369.162 369.162 369.162 
369.162 369.162 369.162 369.162 369.162 369.162 369.162 369.162 369.162 369.162 
369.162 369.162 369.162 393.155 393.155 393.155 393.155 393.155 393.155 393.155 
393.155 393.155 393.155 393.155 393.155 393.155 393.155 393.155 393.155 393.155 
393.155 393.155 393.155 393.155 393.155 393.155 393.155 393.155 393.155 393.155 
393.155 393.155 393.155 393.155 393.155 393.155 393.155 393.155 393.155 393.155 
393.155 393.155 393.155 393.155 393.155 393.155 393.155 438.473 438.473 438.473 
438.473 438.473 438.473 438.473 438.473 438.473 438.473 438.473 438.473 438.473 
438.473 438.473 438.473 438.473 438.473 438.473 438.473 438.473 438.473 438.473 
438.473 438.473 438.473 438.473 438.473 438.473 438.473 438.473 438.473 438.473 
438.473 438.473 438.473 438.473 438.473 438.473 438.473 438.473 438.473 438.473 
438.473 468.997 468.997 468.997 468.997 468.997 468.997 468.997 468.997 468.997 
468.997 468.997 468.997 468.997 468.997 468.997 468.997 468.997 468.997 468.997 
468.997 468.997 468.997 468.997 468.997 468.997 468.997 468.997 468.997 468.997 
468.997 468.997 468.997 468.997 468.997 468.997 468.997 468.997 468.997 468.997 
468.997 468.997 468.997 468.997 468.997 464.407 464.407 464.407 464.407 464.407 
464.407 464.407 464.407 464.407 464.407 464.407 464.407 464.407 464.407 464.407 
464.407 464.407 464.407 464.407 464.407 464.407 464.407 464.407 464.407 464.407 
464.407 464.407 464.407 464.407 464.407 464.407 464.407 464.407 464.407 464.407 
464.407 464.407 464.407 464.407 464.407 464.407 464.407 464.407 464.407 463.077 
463.077 463.077 463.077 463.077 463.077 463.077 463.077 463.077 463.077 463.077 
463.077 463.077 463.077 463.077 463.077 463.077 463.077 463.077 463.077 463.077 
463.077 463.077 463.077 463.077 463.077 463.077 463.077 463.077 463.077 463.077 
463.077 463.077 463.077 463.077 463.077 463.077 463.077 463.077 463.077 463.077 
463.077 463.077 463.077 598.194 598.194 598.194 598.194 598.194 598.194 598.194 
598.194 598.194 598.194 598.194 598.194 598.194 598.194 598.194 598.194 598.194 
598.194 598.194 598.194 598.194 598.194 598.194 598.194 598.194 598.194 598.194 
598.194 598.194 598.194 598.194 598.194 598.194 598.194 598.194 598.194 598.194 
598.194 598.194 598.194 598.194 598.194 598.194 598.194 470.649 470.649 470.649 
470.649 470.649 470.649 470.649 470.649 470.649 470.649 470.649 470.649 470.649 
470.649 470.649 470.649 470.649 470.649 470.649 470.649 470.649 470.649 470.649 
470.649 470.649 470.649 470.649 470.649 470.649 470.649 470.649 470.649 470.649 
470.649 470.649 470.649 470.649 470.649 470.649 470.649 470.649 470.649 470.649 
470.649 465.745 465.745 465.745 465.745 465.745 465.745 465.745 465.745 465.745 
465.745 465.745 465.745 465.745 465.745 465.745 465.745 465.745 465.745 465.745 
465.745 465.745 465.745 465.745 465.745 465.745 465.745 465.745 465.745 465.745 
465.745 465.745 465.745 465.745 465.745 465.745 465.745 465.745 465.745 465.745 
465.745 465.745 465.745 465.745 465.745 450.184 450.184 450.184 450.184 450.184 
450.184 450.184 450.184 450.184 450.184 450.184 450.184 450.184 450.184 450.184 
450.184 450.184 450.184 450.184 450.184 450.184 450.184 450.184 450.184 450.184 
450.184 450.184 450.184 450.184 450.184 450.184 450.184 450.184 450.184 450.184 
450.184 450.184 450.184 450.184 450.184 450.184 450.184 450.184 450.184 598.068 
598.068 598.068 598.068 598.068 598.068 598.068 598.068 598.068 598.068 598.068 
598.068 598.068 598.068 598.068 598.068 598.068 598.068 598.068 598.068 598.068 
598.068 598.068 598.068 598.068 598.068 598.068 598.068 598.068 598.068 598.068 
598.068 598.068 598.068 598.068 598.068 598.068 598.068 598.068 598.068 598.068 
598.068 598.068 598.068 450.189 450.189 450.189 450.189 450.189 450.189 450.189 
450.189 450.189 450.189 450.189 450.189 450.189 450.189 450.189 450.189 450.189 
450.189 450.189 450.189 450.189 450.189 450.189 450.189 450.189 450.189 450.189 
450.189 450.189 450.189 450.189 450.189 450.189 450.189 450.189 450.189 450.189 
450.189 450.189 450.189 450.189 450.189 450.189 450.189 593.656 593.656 593.656 
593.656 593.656 593.656 593.656 593.656 593.656 593.656 593.656 593.656 593.656 
593.656 593.656 593.656 593.656 593.656 593.656 593.656 593.656 593.656 593.656 
593.656 593.656 593.656 593.656 593.656 593.656 593.656 593.656 593.656 593.656 
593.656 593.656 593.656 593.656 593.656 593.656 593.656 593.656 593.656 593.656 
593.656 SCALARS Node_Enthalpy_kJ/kg float 1
LOOKUP_TABLE default
441.729 441.729 441.729 441.729 441.729 441.729 441.729 441.729 441.729 
441.729 441.729 441.729 441.729 441.729 441.729 441.729 441.729 441.729 441.729 
441.729 441.729 441.729 441.729 441.729 441.729 441.729 441.729 441.729 441.729 
441.729 441.729 441.729 441.729 441.729 441.729 441.729 441.729 441.729 441.729 
441.729 441.729 441.729 441.729 441.729 451.342 451.342 451.342 451.342 451.342 
451.342 451.342 451.342 451.342 451.342 451.342 451.342 451.342 451.342 451.342 
451.342 451.342 451.342 451.342 451.342 451.342 451.342 451.342 451.342 451.342 
451.342 451.342 451.342 451.342 451.342 451.342 451.342 451.342 451.342 451.342 
451.342 451.342 451.342 451.342 451.342 451.342 451.342 451.342 451.342 451.122 
451.122 451.122 451.122 451.122 451.122 451.122 451.122 451.122 451.122 451.122 
451.122 451.122 451.122 451.122 451.122 451.122 451.122 451.122 451.122 451.122 
451.122 451.122 451.122 451.122 451.122 451.122 451.122 451.122 451.122 451.122 
451.122 451.122 451.122 451.122 451.122 451.122 451.122 451.122 451.122 451.122 
451.122 451.122 451.122 577.87 577.87 577.87 577.87 577.87 577.87 577.87 
577.87 577.87 577.87 577.87 577.87 577.87 577.87 577.87 577.87 577.87 
577.87 577.87 577.87 577.87 577.87 577.87 577.87 577.87 577.87 577.87 
577.87 577.87 577.87 577.87 577.87 577.87 577.87 577.87 577.87 577.87 
577.87 577.87 577.87 577.87 577.87 577.87 577.87 653.883 653.883 653.883 
653.883 653.883 653.883 653.883 653.883 653.883 653.883 653.883 653.883 653.883 
653.883 653.883 653.883 653.883 653.883 653.883 653.883 653.883 653.883 653.883 
653.883 653.883 653.883 653.883 653.883 653.883 653.883 653.883 653.883 653.883 
653.883 653.883 653.883 653.883 653.883 653.883 653.883 653.883 653.883 653.883 
653.883 441.729 441.729 441.729 441.729 441.729 441.729 441.729 441.729 441.729 
441.729 441.729 441.729 441.729 441.729 441.729 441.729 441.729 441.729 441.729 
441.729 441.729 441.729 441.729 441.729 441.729 441.729 441.729 441.729 441.729 
441.729 441.729 441.729 441.729 441.729 441.729 441.729 441.729 441.729 441.729 
441.729 441.729 441.729 441.729 441.729 446.166 446.166 446.166 446.166 446.166 
446.166 446.166 446.166 446.166 446.166 446.166 446.166 446.166 446.166 446.166 
446.166 446.166 446.166 446.166 446.166 446.166 446.166 446.166 446.166 446.166 
446.166 446.166 446.166 446.166 446.166 446.166 446.166 446.166 446.166 446.166 
446.166 446.166 446.166 446.166 446.166 446.166 446.166 446.166 446.166 445.919 
445.919 445.919 445.919 445.919 445.919 445.919 445.919 445.919 445.919 445.919 
445.919 445.919 445.919 445.919 445.919 445.919 445.919 445.919 445.919 445.919 
445.919 445.919 445.919 445.919 445.919 445.919 445.919 445.919 445.919 445.919 
445.919 445.919 445.919 445.919 445.919 445.919 445.919 445.919 445.919 445.919 
445.919 445.919 445.919 545.161 545.161 545.161 545.161 545.161 545.161 545.161 
545.161 545.161 545.161 545.161 545.161 545.161 545.161 545.161 545.161 545.161 
545.161 545.161 545.161 545.161 545.161 545.161 545.161 545.161 545.161 545.161 
545.161 545.161 545.161 545.161 545.161 545.161 545.161 545.161 545.161 545.161 
545.161 545.161 545.161 545.161 545.161 545.161 545.161 733.221 733.221 733.221 
733.221 733.221 733.221 733.221 733.221 733.221 733.221 733.221 733.221 733.221 