# vtk DataFile Version 2.0
vtkObjects
ASCII
DATASET UNSTRUCTURED_GRID
POINTS 200 float
-57.5376 37.2523 -221.203
-57.5393 37.2426 -221.201
-26.6208 32.1485 -219.261
-26.6225 32.1388 -219.26
3.9272 27.7993 -213.468
3.92549 27.7896 -213.466
33.6248 24.2735 -203.914
33.6231 24.2638 -203.912
62.0036 21.6266 -190.749
62.0019 21.6169 -190.748
88.616 19.9004 -174.182
88.6143 19.8907 -174.181
113.042 19.122 -154.474
113.041 19.1123 -154.473
134.898 19.3038 -131.936
134.896 19.2941 -131.934
153.837 20.4429 -106.922
153.835 20.4332 -106.921
169.561 22.5213 -79.8286
169.56 22.5116 -79.8268
181.823 25.5063 -51.0815
181.822 25.4966 -51.0797
190.429 29.3507 -21.1345
190.428 29.341 -21.1328
195.244 33.994 9.53998
195.242 33.9843 9.54172
196.19 39.3629 40.4583
196.189 39.3532 40.46
193.254 45.3728 71.1328
193.253 45.3631 71.1345
186.482 51.9288 101.08
186.481 51.9191 101.081
175.981 58.9276 129.827
175.979 58.9179 129.829
161.915 66.2588 156.921
161.914 66.2491 156.922
144.508 73.8068 181.934
144.506 73.7971 181.936
124.033 81.4525 204.473
124.031 81.4428 204.474
100.813 89.0754 224.181
100.812 89.0657 224.182
75.2155 96.5553 240.748
75.2138 96.5456 240.749
47.6429 103.774 253.912
47.6412 103.764 253.914
18.5304 110.618 263.466
18.5287 110.608 263.468
-11.6629 116.979 269.26
-11.6646 116.97 269.261
-42.4607 122.757 271.201
-42.4624 122.748 271.203
-73.3775 127.861 269.26
-73.3792 127.852 269.261
-103.925 132.21 263.466
-103.927 132.201 263.468
-133.623 135.736 253.912
-133.625 135.726 253.914
-162.002 138.383 240.748
-162.004 138.373 240.749
-188.614 140.109 224.181
-188.616 140.1 224.182
-213.041 140.888 204.473
-213.042 140.878 204.474
-234.896 140.706 181.934
-234.898 140.696 181.936
-253.835 139.567 156.921
-253.837 139.557 156.922
-269.56 137.488 129.827
-269.561 137.479 129.829
-281.822 134.503 101.08
-281.823 134.494 101.081
-290.428 130.659 71.1328
-290.429 130.649 71.1345
-295.242 126.016 40.4583
-295.244 126.006 40.46
-296.189 120.647 9.53998
-296.19 120.637 9.54172
-293.253 114.637 -21.1345
-293.254 114.627 -21.1328
-286.481 108.081 -51.0815
-286.482 108.071 -51.0797
-275.979 101.082 -79.8286
-275.981 101.072 -79.8268
-261.914 93.7509 -106.922
-261.915 93.7412 -106.921
-244.506 86.2029 -131.936
-244.508 86.1932 -131.934
-224.031 78.5572 -154.474
-224.033 78.5475 -154.473
-200.812 70.9343 -174.182
-200.813 70.9246 -174.181
-175.214 63.4544 -190.749
-175.216 63.4447 -190.748
-147.641 56.2356 -203.914
-147.643 56.2259 -203.912
-118.529 49.3916 -213.468
-118.53 49.3819 -213.466
-88.3354 43.0304 -219.261
-88.3371 43.0207 -219.26
59.0453 -28.7018 -320.443
59.047 -28.6921 -320.441
21.9452 -22.5772 -318.114
21.9469 -22.5675 -318.112
-14.7125 -17.3582 -311.161
-14.7108 -17.3485 -311.16
-50.3496 -13.1273 -299.696
-50.3479 -13.1176 -299.694
-84.4041 -9.95097 -283.899
-84.4024 -9.94128 -283.897
-116.339 -7.87948 -264.019
-116.337 -7.86978 -264.017
-145.651 -6.94545 -240.369
-145.649 -6.93575 -240.367
-171.877 -7.16361 -213.323
-171.875 -7.15391 -213.321
-194.604 -8.53051 -183.307
-194.602 -8.52082 -183.305
-213.473 -11.0246 -150.794
-213.472 -11.0149 -150.792
-228.188 -14.6066 -116.298
-228.186 -14.5969 -116.296
-238.515 -19.2199 -80.3612
-238.513 -19.2102 -80.3595
-244.292 -24.7918 -43.5518
-244.29 -24.7822 -43.5501
-245.428 -31.2345 -6.44989
-245.426 -31.2248 -6.44815
-241.905 -38.4464 30.3595
-241.903 -38.4367 30.3612
-233.779 -46.3136 66.2958
-233.777 -46.3039 66.2976
-221.177 -54.7121 100.792
-221.175 -54.7024 100.794
-204.298 -63.5096 133.305
-204.296 -63.4999 133.307
-183.409 -72.5672 163.321
-183.408 -72.5575 163.323
-158.839 -81.742 190.367
-158.838 -81.7323 190.369
-130.976 -90.8895 214.017
-130.974 -90.8798 214.019
-100.258 -99.8653 233.897
-100.257 -99.8556 233.899
-67.1713 -108.528 249.694
-67.1696 -108.518 249.696
-32.2363 -116.741 261.16
-32.2346 -116.731 261.161
3.99563 -124.374 268.112
3.99734 -124.364 268.114
40.953 -131.308 270.441
40.9547 -131.298 270.443
78.0531 -137.432 268.112
78.0548 -137.423 268.114
114.711 -142.651 261.16
114.712 -142.642 261.161
150.348 -146.882 249.694
150.35 -146.873 249.696
184.402 -150.059 233.897
184.404 -150.049 233.899
216.337 -152.13 214.017
216.339 -152.121 214.019
245.649 -153.064 190.367
245.651 -153.055 190.369
271.875 -152.846 163.321
271.877 -152.836 163.323
294.602 -151.479 133.305
294.604 -151.469 133.307
313.472 -148.985 100.792
313.473 -148.975 100.794
328.186 -145.403 66.2958
328.188 -145.393 66.2976
338.513 -140.79 30.3595
338.515 -140.78 30.3612
344.29 -135.218 -6.44989
344.292 -135.208 -6.44815
345.426 -128.775 -43.5518
345.428 -128.765 -43.5501
341.903 -121.563 -80.3612
341.905 -121.554 -80.3595
333.777 -113.696 -116.298
333.779 -113.686 -116.296
321.175 -105.298 -150.794
321.177 -105.288 -150.792
304.296 -96.5001 -183.307
304.298 -96.4904 -183.305
283.408 -87.4425 -213.323
283.409 -87.4328 -213.321
258.838 -78.2677 -240.369
258.839 -78.258 -240.367
230.974 -69.1202 -264.019
230.976 -69.1105 -264.017
200.257 -60.1444 -283.899
200.258 -60.1347 -283.897
167.17 -51.4818 -299.696
167.171 -51.4721 -299.694
132.235 -43.269 -311.161
132.236 -43.2593 -311.16
96.0027 -35.6355 -318.114
96.0044 -35.6258 -318.112
CELLS 392 1568
3 26 27 25
3 26 25 24
3 29 26 27
3 29 26 28
3 41 42 40
3 41 42 43
3 51 48 50
3 51 48 49
3 35 34 32
3 35 32 33
3 35 34 36
3 35 37 36
3 52 51 53
3 52 51 50
3 15 14 12
3 15 13 12
3 20 21 19
3 20 18 19
3 23 22 24
3 23 25 24
3 23 20 22
3 23 20 21
3 31 32 30
3 31 32 33
3 31 28 30
3 31 29 28
3 95 96 94
3 95 96 97
3 98 1 99
3 98 1 0
3 98 99 97
3 98 96 97
3 2 1 3
3 2 1 0
3 5 4 6
3 5 6 7
3 5 2 4
3 5 2 3
3 9 8 6
3 9 6 7
3 45 42 44
3 45 42 43
3 46 45 47
3 46 45 44
3 46 48 49
3 46 47 49
3 60 61 63
3 60 63 62
3 17 16 18
3 17 18 19
3 17 16 14
3 17 15 14
3 39 37 36
3 39 38 36
3 39 41 40
3 39 38 40
3 55 52 54
3 55 52 53
3 55 54 56
3 55 57 56
3 59 60 58
3 59 60 61
3 59 58 56
3 59 57 56
3 73 72 74
3 73 74 75
3 88 89 87
3 88 87 86
3 88 89 91
3 88 90 91
3 93 92 90
3 93 90 91
3 93 95 94
3 93 92 94
3 77 76 74
3 77 74 75
3 11 13 12
3 11 10 12
3 11 9 8
3 11 10 8
3 70 14 12
3 70 22 24
3 70 26 24
3 70 16 18
3 70 42 44
3 70 2 0
3 70 46 44
3 70 32 30
3 70 34 36
3 70 76 74
3 70 66 68
3 70 48 50
3 70 60 62
3 70 28 30
3 70 20 18
3 70 98 0
3 70 88 86
3 70 34 32
3 70 54 56
3 70 58 56
3 70 72 74
3 70 16 14
3 70 52 50
3 70 26 28
3 70 96 94
3 70 78 80
3 70 4 6
3 70 8 6
3 70 42 40
3 70 38 36
3 70 52 54
3 70 20 22
3 70 64 62
3 70 92 94
3 70 98 96
3 70 2 4
3 70 38 40
3 70 46 48
3 70 60 58
3 70 84 86
3 70 10 12
3 70 92 90
3 70 78 76
3 70 82 80
3 70 10 8
3 70 66 64
3 70 88 90
3 70 84 82
3 67 66 68
3 67 69 68
3 79 78 80
3 79 81 80
3 79 78 76
3 79 77 76
3 83 82 80
3 83 81 80
3 71 70 68
3 71 69 68
3 71 73 72
3 71 70 72
3 65 63 62
3 65 64 62
3 65 66 64
3 65 67 66
3 85 31 33
3 85 21 19
3 85 9 7
3 85 45 43
3 85 41 43
3 85 59 61
3 85 27 25
3 85 95 97
3 85 99 97
3 85 35 33
3 85 39 37
3 85 23 25
3 85 1 3
3 85 5 7
3 85 51 53
3 85 29 27
3 85 17 19
3 85 93 91
3 85 89 87
3 85 51 49
3 85 47 49
3 85 35 37
3 85 61 63
3 85 11 13
3 85 15 13
3 85 23 21
3 85 31 29
3 85 73 75
3 85 79 81
3 85 1 99
3 85 5 3
3 85 77 75
3 85 45 47
3 85 55 53
3 85 17 15
3 85 89 91
3 85 39 41
3 85 55 57
3 85 59 57
3 85 65 63
3 85 93 95
3 85 71 69
3 85 11 9
3 85 67 69
3 85 79 77
3 85 83 81
3 85 71 73
3 85 65 67
3 85 87 86
3 85 84 86
3 85 84 82
3 85 83 82
3 149 146 148
3 149 146 147
3 151 152 150
3 151 152 153
3 151 148 150
3 151 149 148
3 141 138 140
3 141 138 139
3 160 163 161
3 160 163 162
3 159 160 158
3 159 160 161
3 159 158 156
3 159 157 156
3 145 146 144
3 145 146 147
3 133 132 130
3 133 130 131
3 133 132 134
3 133 135 134
3 137 138 136
3 137 138 139
3 137 134 136
3 137 135 134
3 127 126 124
3 127 125 124
3 123 120 122
3 123 120 121
3 123 122 124
3 123 125 124
3 119 120 118
3 119 120 121
3 116 119 117
3 116 119 118
3 109 108 106
3 109 107 106
3 101 102 100
3 101 102 103
3 195 194 192
3 195 192 193
3 196 195 194
3 196 195 197
3 167 166 168
3 167 168 169
3 164 163 165
3 164 163 162
3 164 167 165
3 164 167 166
3 170 171 169
3 170 168 169
3 154 155 157
3 154 157 156
3 154 152 153
3 154 155 153
3 143 142 140
3 143 141 140
3 143 142 144
3 143 145 144
3 129 128 130
3 129 130 131
3 129 128 126
3 129 127 126
3 105 104 102
3 105 102 103
3 105 104 106
3 105 107 106
3 111 110 112
3 111 112 113
3 111 110 108
3 111 109 108
3 191 190 192
3 191 192 193
3 191 190 188
3 191 189 188
3 187 188 186
3 187 189 188
3 198 101 100
3 198 101 199
3 198 199 197
3 198 196 197
3 184 187 185
3 184 187 186
3 181 178 179
3 181 178 180
3 114 115 113
3 114 112 113
3 114 116 117
3 114 115 117
3 183 149 147
3 183 111 113
3 183 129 131
3 183 163 161
3 183 137 139
3 183 105 103
3 183 145 147
3 183 151 153
3 183 195 193
3 183 155 153
3 183 141 139
3 183 119 121
3 183 101 103
3 183 173 175
3 183 177 175
3 183 151 149
3 183 159 161
3 183 133 131
3 183 143 141
3 183 123 121
3 183 115 113
3 183 199 197
3 183 163 165
3 183 171 169
3 183 155 157
3 183 159 157
3 183 167 169
3 183 133 135
3 183 137 135
3 183 127 125
3 183 123 125
3 183 119 117
3 183 109 107
3 183 101 199
3 183 191 193
3 183 195 197
3 183 187 185
3 183 167 165
3 183 143 145
3 183 129 127
3 183 115 117
3 183 105 107
3 183 111 109
3 183 191 189
3 183 187 189
3 183 181 179
3 183 173 171
3 183 177 179
3 183 184 185
3 183 184 182
3 183 182 180
3 183 181 180
3 172 173 175
3 172 174 175
3 172 170 171
3 172 173 171
3 176 102 100
3 176 134 136
3 176 198 100
3 176 122 124
3 176 148 150
3 176 126 124
3 176 188 186
3 176 164 162
3 176 146 144
3 176 142 144
3 176 128 130
3 176 190 192
3 176 152 150
3 176 146 148
3 176 142 140
3 176 138 136
3 176 132 130
3 176 120 118
3 176 108 106
3 176 172 174
3 176 110 112
3 176 184 186
3 176 114 112
3 176 158 156
3 176 138 140
3 176 132 134
3 176 128 126
3 176 160 162
3 176 110 108
3 176 104 106
3 176 194 192
3 176 154 156
3 176 166 168
3 176 160 158
3 176 120 122
3 176 116 118
3 176 104 102
3 176 190 188
3 176 196 194
3 176 182 180
3 176 164 166
3 176 170 168
3 176 154 152
3 176 198 196
3 176 184 182
3 176 178 180
3 176 114 116
3 176 172 170
3 176 177 175
3 176 174 175
3 176 178 179
3 176 177 179
CELL_TYPES 392
5 5 5 5 5 5 5 5 5 5 
5 5 5 5 5 5 5 5 5 5 
5 5 5 5 5 5 5 5 5 5 
5 5 5 5 5 5 5 5 5 5 
5 5 5 5 5 5 5 5 5 5 
5 5 5 5 5 5 5 5 5 5 
5 5 5 5 5 5 5 5 5 5 
5 5 5 5 5 5 5 5 5 5 
5 5 5 5 5 5 5 5 5 5 
5 5 5 5 5 5 5 5 5 5 
5 5 5 5 5 5 5 5 5 5 
5 5 5 5 5 5 5 5 5 5 
5 5 5 5 5 5 5 5 5 5 
5 5 5 5 5 5 5 5 5 5 
5 5 5 5 5 5 5 5 5 5 
5 5 5 5 5 5 5 5 5 5 
5 5 5 5 5 5 5 5 5 5 
5 5 5 5 5 5 5 5 5 5 
5 5 5 5 5 5 5 5 5 5 
5 5 5 5 5 5 5 5 5 5 
5 5 5 5 5 5 5 5 5 5 
5 5 5 5 5 5 5 5 5 5 
5 5 5 5 5 5 5 5 5 5 
5 5 5 5 5 5 5 5 5 5 
5 5 5 5 5 5 5 5 5 5 
5 5 5 5 5 5 5 5 5 5 
5 5 5 5 5 5 5 5 5 5 
5 5 5 5 5 5 5 5 5 5 
5 5 5 5 5 5 5 5 5 5 
5 5 5 5 5 5 5 5 5 5 
5 5 5 5 5 5 5 5 5 5 
5 5 5 5 5 5 5 5 5 5 
5 5 5 5 5 5 5 5 5 5 
5 5 5 5 5 5 5 5 5 5 
5 5 5 5 5 5 5 5 5 5 
5 5 5 5 5 5 5 5 5 5 
5 5 5 5 5 5 5 5 5 5 
5 5 5 5 5 5 5 5 5 5 
5 5 5 5 5 5 5 5 5 5 
5 5 
CELL_DATA 392
SCALARS Face_Number float 1
LOOKUP_TABLE default
6 6 6 6 6 6 6 6 6 
6 6 6 6 6 6 6 6 6 6 
6 6 6 6 6 6 6 6 6 6 
6 6 6 6 6 6 6 6 6 6 
6 6 6 6 6 6 6 6 6 6 
6 6 6 6 6 6 6 6 6 6 
6 6 6 6 6 6 6 6 6 6 
6 6 6 6 6 6 6 6 6 6 
6 6 6 6 6 6 6 6 6 6 
6 6 6 6 6 6 6 6 6 6 
6 6 6 6 6 6 6 6 6 6 
6 6 6 6 6 6 6 6 6 6 
6 6 6 6 6 6 6 6 6 6 
6 6 6 6 6 6 6 6 6 6 
6 6 6 6 6 6 6 6 6 6 
6 6 6 6 6 6 6 6 6 6 
6 6 6 6 6 6 6 6 6 6 
6 6 6 6 6 6 6 6 6 6 
6 6 6 6 6 6 6 6 6 6 
6 6 6 6 6 6 6 7 7 7 
7 7 7 7 7 7 7 7 7 7 
7 7 7 7 7 7 7 7 7 7 
7 7 7 7 7 7 7 7 7 7 
7 7 7 7 7 7 7 7 7 7 
7 7 7 7 7 7 7 7 7 7 
7 7 7 7 7 7 7 7 7 7 
7 7 7 7 7 7 7 7 7 7 
7 7 7 7 7 7 7 7 7 7 
7 7 7 7 7 7 7 7 7 7 
7 7 7 7 7 7 7 7 7 7 
7 7 7 7 7 7 7 7 7 7 
7 7 7 7 7 7 7 7 7 7 
7 7 7 7 7 7 7 7 7 7 
7 7 7 7 7 7 7 7 7 7 
7 7 7 7 7 7 7 7 7 7 
7 7 7 7 7 7 7 7 7 7 
7 7 7 7 7 7 7 7 7 7 
7 7 7 7 7 7 7 7 7 7 
7 7 7 7 7 7 7 7 7 7 
7 7 7 SCALARS Node_Number float 1
LOOKUP_TABLE default
9 9 9 9 9 9 9 9 9 
9 9 9 9 9 9 9 9 9 9 
9 9 9 9 9 9 9 9 9 9 
9 9 9 9 9 9 9 9 9 9 
9 9 9 9 9 9 9 9 9 9 
9 9 9 9 9 9 9 9 9 9 
9 9 9 9 9 9 9 9 9 9 
9 9 9 9 9 9 9 9 9 9 
9 9 9 9 9 9 9 9 9 9 
9 9 9 9 9 9 9 9 9 9 
9 9 9 9 9 9 9 9 9 9 
9 9 9 9 9 9 9 9 9 9 
9 9 9 9 9 9 9 9 9 9 
9 9 9 9 9 9 9 9 9 9 
9 9 9 9 9 9 9 9 9 9 
9 9 9 9 9 9 9 9 9 9 
9 9 9 9 9 9 9 9 9 9 
9 9 9 9 9 9 9 9 9 9 
9 9 9 9 9 9 9 9 9 9 
9 9 9 9 9 9 9 4 4 4 
4 4 4 4 4 4 4 4 4 4 
4 4 4 4 4 4 4 4 4 4 
4 4 4 4 4 4 4 4 4 4 
4 4 4 4 4 4 4 4 4 4 
4 4 4 4 4 4 4 4 4 4 
4 4 4 4 4 4 4 4 4 4 
4 4 4 4 4 4 4 4 4 4 
4 4 4 4 4 4 4 4 4 4 
4 4 4 4 4 4 4 4 4 4 
4 4 4 4 4 4 4 4 4 4 
4 4 4 4 4 4 4 4 4 4 
4 4 4 4 4 4 4 4 4 4 
4 4 4 4 4 4 4 4 4 4 
4 4 4 4 4 4 4 4 4 4 
4 4 4 4 4 4 4 4 4 4 
4 4 4 4 4 4 4 4 4 4 
4 4 4 4 4 4 4 4 4 4 
4 4 4 4 4 4 4 4 4 4 
4 4 4 4 4 4 4 4 4 4 
4 4 4 SCALARS Type float 1
LOOKUP_TABLE default
1 1 1 1 1 1 1 1 1 
1 1 1 1 1 1 1 1 1 1 
1 1 1 1 1 1 1 1 1 1 
1 1 1 1 1 1 1 1 1 1 
1 1 1 1 1 1 1 1 1 1 
1 1 1 1 1 1 1 1 1 1 
1 1 1 1 1 1 1 1 1 1 
1 1 1 1 1 1 1 1 1 1 
1 1 1 1 1 1 1 1 1 1 
1 1 1 1 1 1 1 1 1 1 
1 1 1 1 1 1 1 1 1 1 
1 1 1 1 1 1 1 1 1 1 
1 1 1 1 1 1 1 1 1 1 
1 1 1 1 1 1 1 1 1 1 
1 1 1 1 1 1 1 1 1 1 
1 1 1 1 1 1 1 1 1 1 
1 1 1 1 1 1 1 1 1 1 
1 1 1 1 1 1 1 1 1 1 
1 1 1 1 1 1 1 1 1 1 
1 1 1 1 1 1 1 1 1 1 
1 1 1 1 1 1 1 1 1 1 
1 1 1 1 1 1 1 1 1 1 
1 1 1 1 1 1 1 1 1 1 
1 1 1 1 1 1 1 1 1 1 
1 1 1 1 1 1 1 1 1 1 
1 1 1 1 1 1 1 1 1 1 
1 1 1 1 1 1 1 1 1 1 
1 1 1 1 1 1 1 1 1 1 
1 1 1 1 1 1 1 1 1 1 
1 1 1 1 1 1 1 1 1 1 
1 1 1 1 1 1 1 1 1 1 
1 1 1 1 1 1 1 1 1 1 
1 1 1 1 1 1 1 1 1 1 
1 1 1 1 1 1 1 1 1 1 
1 1 1 1 1 1 1 1 1 1 
1 1 1 1 1 1 1 1 1 1 
1 1 1 1 1 1 1 1 1 1 
1 1 1 1 1 1 1 1 1 1 
1 1 1 1 1 1 1 1 1 1 
1 1 1 SCALARS bd_mm float 1
LOOKUP_TABLE default
0.430338 0.430338 0.430338 0.430338 0.430338 0.430338 0.430338 0.430338 0.430338 
0.430338 0.430338 0.430338 0.430338 0.430338 0.430338 0.430338 0.430338 0.430338 0.430338 
0.430338 0.430338 0.430338 0.430338 0.430338 0.430338 0.430338 0.430338 0.430338 0.430338 
0.430338 0.430338 0.430338 0.430338 0.430338 0.430338 0.430338 0.430338 0.430338 0.430338 
0.430338 0.430338 0.430338 0.430338 0.430338 0.430338 0.430338 0.430338 0.430338 0.430338 
0.430338 0.430338 0.430338 0.430338 0.430338 0.430338 0.430338 0.430338 0.430338 0.430338 
0.430338 0.430338 0.430338 0.430338 0.430338 0.430338 0.430338 0.430338 0.430338 0.430338 
0.430338 0.430338 0.430338 0.430338 0.430338 0.430338 0.430338 0.430338 0.430338 0.430338 
0.430338 0.430338 0.430338 0.430338 0.430338 0.430338 0.430338 0.430338 0.430338 0.430338 
0.430338 0.430338 0.430338 0.430338 0.430338 0.430338 0.430338 0.430338 0.430338 0.430338 
0.430338 0.430338 0.430338 0.430338 0.430338 0.430338 0.430338 0.430338 0.430338 0.430338 
0.430338 0.430338 0.430338 0.430338 0.430338 0.430338 0.430338 0.430338 0.430338 0.430338 
0.430338 0.430338 0.430338 0.430338 0.430338 0.430338 0.430338 0.430338 0.430338 0.430338 
0.430338 0.430338 0.430338 0.430338 0.430338 0.430338 0.430338 0.430338 0.430338 0.430338 
0.430338 0.430338 0.430338 0.430338 0.430338 0.430338 0.430338 0.430338 0.430338 0.430338 
0.430338 0.430338 0.430338 0.430338 0.430338 0.430338 0.430338 0.430338 0.430338 0.430338 
0.430338 0.430338 0.430338 0.430338 0.430338 0.430338 0.430338 0.430338 0.430338 0.430338 
0.430338 0.430338 0.430338 0.430338 0.430338 0.430338 0.430338 0.430338 0.430338 0.430338 
0.430338 0.430338 0.430338 0.430338 0.430338 0.430338 0.430338 0.430338 0.430338 0.430338 
0.430338 0.430338 0.430338 0.430338 0.430338 0.430338 0.430338 1.71545 1.71545 1.71545 
1.71545 1.71545 1.71545 1.71545 1.71545 1.71545 1.71545 1.71545 1.71545 1.71545 
1.71545 1.71545 1.71545 1.71545 1.71545 1.71545 1.71545 1.71545 1.71545 1.71545 
1.71545 1.71545 1.71545 1.71545 1.71545 1.71545 1.71545 1.71545 1.71545 1.71545 
1.71545 1.71545 1.71545 1.71545 1.71545 1.71545 1.71545 1.71545 1.71545 1.71545 
1.71545 1.71545 1.71545 1.71545 1.71545 1.71545 1.71545 1.71545 1.71545 1.71545 
1.71545 1.71545 1.71545 1.71545 1.71545 1.71545 1.71545 1.71545 1.71545 1.71545 
1.71545 1.71545 1.71545 1.71545 1.71545 1.71545 1.71545 1.71545 1.71545 1.71545 
1.71545 1.71545 1.71545 1.71545 1.71545 1.71545 1.71545 1.71545 1.71545 1.71545 
1.71545 1.71545 1.71545 1.71545 1.71545 1.71545 1.71545 1.71545 1.71545 1.71545 
1.71545 1.71545 1.71545 1.71545 1.71545 1.71545 1.71545 1.71545 1.71545 1.71545 
1.71545 1.71545 1.71545 1.71545 1.71545 1.71545 1.71545 1.71545 1.71545 1.71545 
1.71545 1.71545 1.71545 1.71545 1.71545 1.71545 1.71545 1.71545 1.71545 1.71545 
1.71545 1.71545 1.71545 1.71545 1.71545 1.71545 1.71545 1.71545 1.71545 1.71545 
1.71545 1.71545 1.71545 1.71545 1.71545 1.71545 1.71545 1.71545 1.71545 1.71545 
1.71545 1.71545 1.71545 1.71545 1.71545 1.71545 1.71545 1.71545 1.71545 1.71545 
1.71545 1.71545 1.71545 1.71545 1.71545 1.71545 1.71545 1.71545 1.71545 1.71545 
1.71545 1.71545 1.71545 1.71545 1.71545 1.71545 1.71545 1.71545 1.71545 1.71545 
1.71545 1.71545 1.71545 1.71545 1.71545 1.71545 1.71545 1.71545 1.71545 1.71545 
1.71545 1.71545 1.71545 1.71545 1.71545 1.71545 1.71545 1.71545 1.71545 1.71545 
1.71545 1.71545 1.71545 SCALARS bh_mm float 1
LOOKUP_TABLE default
3.0001 3.0001 3.0001 3.0001 3.0001 3.0001 3.0001 3.0001 3.0001 
3.0001 3.0001 3.0001 3.0001 3.0001 3.0001 3.0001 3.0001 3.0001 3.0001 
3.0001 3.0001 3.0001 3.0001 3.0001 3.0001 3.0001 3.0001 3.0001 3.0001 
3.0001 3.0001 3.0001 3.0001 3.0001 3.0001 3.0001 3.0001 3.0001 3.0001 
3.0001 3.0001 3.0001 3.0001 3.0001 3.0001 3.0001 3.0001 3.0001 3.0001 
3.0001 3.0001 3.0001 3.0001 3.0001 3.0001 3.0001 3.0001 3.0001 3.0001 
3.0001 3.0001 3.0001 3.0001 3.0001 3.0001 3.0001 3.0001 3.0001 3.0001 
3.0001 3.0001 3.0001 3.0001 3.0001 3.0001 3.0001 3.0001 3.0001 3.0001 
3.0001 3.0001 3.0001 3.0001 3.0001 3.0001 3.0001 3.0001 3.0001 3.0001 
3.0001 3.0001 3.0001 3.0001 3.0001 3.0001 3.0001 3.0001 3.0001 3.0001 
3.0001 3.0001 3.0001 3.0001 3.0001 3.0001 3.0001 3.0001 3.0001 3.0001 
3.0001 3.0001 3.0001 3.0001 3.0001 3.0001 3.0001 3.0001 3.0001 3.0001 
3.0001 3.0001 3.0001 3.0001 3.0001 3.0001 3.0001 3.0001 3.0001 3.0001 
3.0001 3.0001 3.0001 3.0001 3.0001 3.0001 3.0001 3.0001 3.0001 3.0001 
3.0001 3.0001 3.0001 3.0001 3.0001 3.0001 3.0001 3.0001 3.0001 3.0001 
3.0001 3.0001 3.0001 3.0001 3.0001 3.0001 3.0001 3.0001 3.0001 3.0001 
3.0001 3.0001 3.0001 3.0001 3.0001 3.0001 3.0001 3.0001 3.0001 3.0001 
3.0001 3.0001 3.0001 3.0001 3.0001 3.0001 3.0001 3.0001 3.0001 3.0001 
3.0001 3.0001 3.0001 3.0001 3.0001 3.0001 3.0001 3.0001 3.0001 3.0001 
3.0001 3.0001 3.0001 3.0001 3.0001 3.0001 3.0001 3.0001 3.0001 3.0001 
3.0001 3.0001 3.0001 3.0001 3.0001 3.0001 3.0001 3.0001 3.0001 3.0001 
3.0001 3.0001 3.0001 3.0001 3.0001 3.0001 3.0001 3.0001 3.0001 3.0001 
3.0001 3.0001 3.0001 3.0001 3.0001 3.0001 3.0001 3.0001 3.0001 3.0001 
3.0001 3.0001 3.0001 3.0001 3.0001 3.0001 3.0001 3.0001 3.0001 3.0001 
3.0001 3.0001 3.0001 3.0001 3.0001 3.0001 3.0001 3.0001 3.0001 3.0001 
3.0001 3.0001 3.0001 3.0001 3.0001 3.0001 3.0001 3.0001 3.0001 3.0001 
3.0001 3.0001 3.0001 3.0001 3.0001 3.0001 3.0001 3.0001 3.0001 3.0001 
3.0001 3.0001 3.0001 3.0001 3.0001 3.0001 3.0001 3.0001 3.0001 3.0001 
3.0001 3.0001 3.0001 3.0001 3.0001 3.0001 3.0001 3.0001 3.0001 3.0001 
3.0001 3.0001 3.0001 3.0001 3.0001 3.0001 3.0001 3.0001 3.0001 3.0001 
3.0001 3.0001 3.0001 3.0001 3.0001 3.0001 3.0001 3.0001 3.0001 3.0001 
3.0001 3.0001 3.0001 3.0001 3.0001 3.0001 3.0001 3.0001 3.0001 3.0001 
3.0001 3.0001 3.0001 3.0001 3.0001 3.0001 3.0001 3.0001 3.0001 3.0001 
3.0001 3.0001 3.0001 3.0001 3.0001 3.0001 3.0001 3.0001 3.0001 3.0001 
3.0001 3.0001 3.0001 3.0001 3.0001 3.0001 3.0001 3.0001 3.0001 3.0001 
3.0001 3.0001 3.0001 3.0001 3.0001 3.0001 3.0001 3.0001 3.0001 3.0001 
3.0001 3.0001 3.0001 3.0001 3.0001 3.0001 3.0001 3.0001 3.0001 3.0001 
3.0001 3.0001 3.0001 3.0001 3.0001 3.0001 3.0001 3.0001 3.0001 3.0001 
3.0001 3.0001 3.0001 3.0001 3.0001 3.0001 3.0001 3.0001 3.0001 3.0001 
3.0001 3.0001 3.0001 SCALARS Sn_MPa float 1
LOOKUP_TABLE default
110.569 110.569 110.569 110.569 110.569 110.569 110.569 110.569 110.569 
110.569 110.569 110.569 110.569 110.569 110.569 110.569 110.569 110.569 110.569 
110.569 110.569 110.569 110.569 110.569 110.569 110.569 110.569 110.569 110.569 
110.569 110.569 110.569 110.569 110.569 110.569 110.569 110.569 110.569 110.569 
110.569 110.569 110.569 110.569 110.569 110.569 110.569 110.569 110.569 110.569 
110.569 110.569 110.569 110.569 110.569 110.569 110.569 110.569 110.569 110.569 
110.569 110.569 110.569 110.569 110.569 110.569 110.569 110.569 110.569 110.569 
110.569 110.569 110.569 110.569 110.569 110.569 110.569 110.569 110.569 110.569 
110.569 110.569 110.569 110.569 110.569 110.569 110.569 110.569 110.569 110.569 
110.569 110.569 110.569 110.569 110.569 110.569 110.569 110.569 110.569 110.569 
110.569 110.569 110.569 110.569 110.569 110.569 110.569 110.569 110.569 110.569 
110.569 110.569 110.569 110.569 110.569 110.569 110.569 110.569 110.569 110.569 
110.569 110.569 110.569 110.569 110.569 110.569 110.569 110.569 110.569 110.569 
110.569 110.569 110.569 110.569 110.569 110.569 110.569 110.569 110.569 110.569 
110.569 110.569 110.569 110.569 110.569 110.569 110.569 110.569 110.569 110.569 
110.569 110.569 110.569 110.569 110.569 110.569 110.569 110.569 110.569 110.569 
110.569 110.569 110.569 110.569 110.569 110.569 110.569 110.569 110.569 110.569 
110.569 110.569 110.569 110.569 110.569 110.569 110.569 110.569 110.569 110.569 
110.569 110.569 110.569 110.569 110.569 110.569 110.569 110.569 110.569 110.569 
110.569 110.569 110.569 110.569 110.569 110.569 110.569 110.569 110.569 110.569 
110.569 110.569 110.569 110.569 110.569 110.569 110.569 110.569 110.569 110.569 
110.569 110.569 110.569 110.569 110.569 110.569 110.569 110.569 110.569 110.569 
110.569 110.569 110.569 110.569 110.569 110.569 110.569 110.569 110.569 110.569 
110.569 110.569 110.569 110.569 110.569 110.569 110.569 110.569 110.569 110.569 
110.569 110.569 110.569 110.569 110.569 110.569 110.569 110.569 110.569 110.569 
110.569 110.569 110.569 110.569 110.569 110.569 110.569 110.569 110.569 110.569 
110.569 110.569 110.569 110.569 110.569 110.569 110.569 110.569 110.569 110.569 
110.569 110.569 110.569 110.569 110.569 110.569 110.569 110.569 110.569 110.569 
110.569 110.569 110.569 110.569 110.569 110.569 110.569 110.569 110.569 110.569 
110.569 110.569 110.569 110.569 110.569 110.569 110.569 110.569 110.569 110.569 
110.569 110.569 110.569 110.569 110.569 110.569 110.569 110.569 110.569 110.569 
110.569 110.569 110.569 110.569 110.569 110.569 110.569 110.569 110.569 110.569 
110.569 110.569 110.569 110.569 110.569 110.569 110.569 110.569 110.569 110.569 
110.569 110.569 110.569 110.569 110.569 110.569 110.569 110.569 110.569 110.569 
110.569 110.569 110.569 110.569 110.569 110.569 110.569 110.569 110.569 110.569 
110.569 110.569 110.569 110.569 110.569 110.569 110.569 110.569 110.569 110.569 
110.569 110.569 110.569 110.569 110.569 110.569 110.569 110.569 110.569 110.569 
110.569 110.569 110.569 110.569 110.569 110.569 110.569 110.569 110.569 110.569 
110.569 110.569 110.569 110.569 110.569 110.569 110.569 110.569 110.569 110.569 
110.569 110.569 110.569 SCALARS Pcen_MPa float 1
LOOKUP_TABLE default
1.04868e+08 1.04868e+08 1.04868e+08 1.04868e+08 1.04868e+08 1.04868e+08 1.04868e+08 1.04868e+08 1.04868e+08 
1.04868e+08 1.04868e+08 1.04868e+08 1.04868e+08 1.04868e+08 1.04868e+08 1.04868e+08 1.04868e+08 1.04868e+08 1.04868e+08 
1.04868e+08 1.04868e+08 1.04868e+08 1.04868e+08 1.04868e+08 1.04868e+08 1.04868e+08 1.04868e+08 1.04868e+08 1.04868e+08 
1.04868e+08 1.04868e+08 1.04868e+08 1.04868e+08 1.04868e+08 1.04868e+08 1.04868e+08 1.04868e+08 1.04868e+08 1.04868e+08 
1.04868e+08 1.04868e+08 1.04868e+08 1.04868e+08 1.04868e+08 1.04868e+08 1.04868e+08 1.04868e+08 1.04868e+08 1.04868e+08 
1.04868e+08 1.04868e+08 1.04868e+08 1.04868e+08 1.04868e+08 1.04868e+08 1.04868e+08 1.04868e+08 1.04868e+08 1.04868e+08 
1.04868e+08 1.04868e+08 1.04868e+08 1.04868e+08 1.04868e+08 1.04868e+08 1.04868e+08 1.04868e+08 1.04868e+08 1.04868e+08 
1.04868e+08 1.04868e+08 1.04868e+08 1.04868e+08 1.04868e+08 1.04868e+08 1.04868e+08 1.04868e+08 1.04868e+08 1.04868e+08 
1.04868e+08 1.04868e+08 1.04868e+08 1.04868e+08 1.04868e+08 1.04868e+08 1.04868e+08 1.04868e+08 1.04868e+08 1.04868e+08 
1.04868e+08 1.04868e+08 1.04868e+08 1.04868e+08 1.04868e+08 1.04868e+08 1.04868e+08 1.04868e+08 1.04868e+08 1.04868e+08 
1.04868e+08 1.04868e+08 1.04868e+08 1.04868e+08 1.04868e+08 1.04868e+08 1.04868e+08 1.04868e+08 1.04868e+08 1.04868e+08 
1.04868e+08 1.04868e+08 1.04868e+08 1.04868e+08 1.04868e+08 1.04868e+08 1.04868e+08 1.04868e+08 1.04868e+08 1.04868e+08 
1.04868e+08 1.04868e+08 1.04868e+08 1.04868e+08 1.04868e+08 1.04868e+08 1.04868e+08 1.04868e+08 1.04868e+08 1.04868e+08 
1.04868e+08 1.04868e+08 1.04868e+08 1.04868e+08 1.04868e+08 1.04868e+08 1.04868e+08 1.04868e+08 1.04868e+08 1.04868e+08 
1.04868e+08 1.04868e+08 1.04868e+08 1.04868e+08 1.04868e+08 1.04868e+08 1.04868e+08 1.04868e+08 1.04868e+08 1.04868e+08 
1.04868e+08 1.04868e+08 1.04868e+08 1.04868e+08 1.04868e+08 1.04868e+08 1.04868e+08 1.04868e+08 1.04868e+08 1.04868e+08 
1.04868e+08 1.04868e+08 1.04868e+08 1.04868e+08 1.04868e+08 1.04868e+08 1.04868e+08 1.04868e+08 1.04868e+08 1.04868e+08 
1.04868e+08 1.04868e+08 1.04868e+08 1.04868e+08 1.04868e+08 1.04868e+08 1.04868e+08 1.04868e+08 1.04868e+08 1.04868e+08 
1.04868e+08 1.04868e+08 1.04868e+08 1.04868e+08 1.04868e+08 1.04868e+08 1.04868e+08 1.04868e+08 1.04868e+08 1.04868e+08 
1.04868e+08 1.04868e+08 1.04868e+08 1.04868e+08 1.04868e+08 1.04868e+08 1.04868e+08 9.16168e+07 9.16168e+07 9.16168e+07 
9.16168e+07 9.16168e+07 9.16168e+07 9.16168e+07 9.16168e+07 9.16168e+07 9.16168e+07 9.16168e+07 9.16168e+07 9.16168e+07 
9.16168e+07 9.16168e+07 9.16168e+07 9.16168e+07 9.16168e+07 9.16168e+07 9.16168e+07 9.16168e+07 9.16168e+07 9.16168e+07 
9.16168e+07 9.16168e+07 9.16168e+07 9.16168e+07 9.16168e+07 9.16168e+07 9.16168e+07 9.16168e+07 9.16168e+07 9.16168e+07 
9.16168e+07 9.16168e+07 9.16168e+07 9.16168e+07 9.16168e+07 9.16168e+07 9.16168e+07 9.16168e+07 9.16168e+07 9.16168e+07 
9.16168e+07 9.16168e+07 9.16168e+07 9.16168e+07 9.16168e+07 9.16168e+07 9.16168e+07 9.16168e+07 9.16168e+07 9.16168e+07 
9.16168e+07 9.16168e+07 9.16168e+07 9.16168e+07 9.16168e+07 9.16168e+07 9.16168e+07 9.16168e+07 9.16168e+07 9.16168e+07 
9.16168e+07 9.16168e+07 9.16168e+07 9.16168e+07 9.16168e+07 9.16168e+07 9.16168e+07 9.16168e+07 9.16168e+07 9.16168e+07 
9.16168e+07 9.16168e+07 9.16168e+07 9.16168e+07 9.16168e+07 9.16168e+07 9.16168e+07 9.16168e+07 9.16168e+07 9.16168e+07 
9.16168e+07 9.16168e+07 9.16168e+07 9.16168e+07 9.16168e+07 9.16168e+07 9.16168e+07 9.16168e+07 9.16168e+07 9.16168e+07 
9.16168e+07 9.16168e+07 9.16168e+07 9.16168e+07 9.16168e+07 9.16168e+07 9.16168e+07 9.16168e+07 9.16168e+07 9.16168e+07 
9.16168e+07 9.16168e+07 9.16168e+07 9.16168e+07 9.16168e+07 9.16168e+07 9.16168e+07 9.16168e+07 9.16168e+07 9.16168e+07 
9.16168e+07 9.16168e+07 9.16168e+07 9.16168e+07 9.16168e+07 9.16168e+07 9.16168e+07 9.16168e+07 9.16168e+07 9.16168e+07 
9.16168e+07 9.16168e+07 9.16168e+07 9.16168e+07 9.16168e+07 9.16168e+07 9.16168e+07 9.16168e+07 9.16168e+07 9.16168e+07 
9.16168e+07 9.16168e+07 9.16168e+07 9.16168e+07 9.16168e+07 9.16168e+07 9.16168e+07 9.16168e+07 9.16168e+07 9.16168e+07 
9.16168e+07 9.16168e+07 9.16168e+07 9.16168e+07 9.16168e+07 9.16168e+07 9.16168e+07 9.16168e+07 9.16168e+07 9.16168e+07 
9.16168e+07 9.16168e+07 9.16168e+07 9.16168e+07 9.16168e+07 9.16168e+07 9.16168e+07 9.16168e+07 9.16168e+07 9.16168e+07 
9.16168e+07 9.16168e+07 9.16168e+07 9.16168e+07 9.16168e+07 9.16168e+07 9.16168e+07 9.16168e+07 9.16168e+07 9.16168e+07 
9.16168e+07 9.16168e+07 9.16168e+07 9.16168e+07 9.16168e+07 9.16168e+07 9.16168e+07 9.16168e+07 9.16168e+07 9.16168e+07 
9.16168e+07 9.16168e+07 9.16168e+07 9.16168e+07 9.16168e+07 9.16168e+07 9.16168e+07 9.16168e+07 9.16168e+07 9.16168e+07 
9.16168e+07 9.16168e+07 9.16168e+07 SCALARS Pc_MPa float 1
LOOKUP_TABLE default
111.237 111.237 111.237 111.237 111.237 111.237 111.237 111.237 111.237 
111.237 111.237 111.237 111.237 111.237 111.237 111.237 111.237 111.237 111.237 
111.237 111.237 111.237 111.237 111.237 111.237 111.237 111.237 111.237 111.237 
111.237 111.237 111.237 111.237 111.237 111.237 111.237 111.237 111.237 111.237 
111.237 111.237 111.237 111.237 111.237 111.237 111.237 111.237 111.237 111.237 
111.237 111.237 111.237 111.237 111.237 111.237 111.237 111.237 111.237 111.237 
111.237 111.237 111.237 111.237 111.237 111.237 111.237 111.237 111.237 111.237 
111.237 111.237 111.237 111.237 111.237 111.237 111.237 111.237 111.237 111.237 
111.237 111.237 111.237 111.237 111.237 111.237 111.237 111.237 111.237 111.237 
111.237 111.237 111.237 111.237 111.237 111.237 111.237 111.237 111.237 111.237 
111.237 111.237 111.237 111.237 111.237 111.237 111.237 111.237 111.237 111.237 
111.237 111.237 111.237 111.237 111.237 111.237 111.237 111.237 111.237 111.237 
111.237 111.237 111.237 111.237 111.237 111.237 111.237 111.237 111.237 111.237 
111.237 111.237 111.237 111.237 111.237 111.237 111.237 111.237 111.237 111.237 
111.237 111.237 111.237 111.237 111.237 111.237 111.237 111.237 111.237 111.237 
111.237 111.237 111.237 111.237 111.237 111.237 111.237 111.237 111.237 111.237 
111.237 111.237 111.237 111.237 111.237 111.237 111.237 111.237 111.237 111.237 
111.237 111.237 111.237 111.237 111.237 111.237 111.237 111.237 111.237 111.237 
111.237 111.237 111.237 111.237 111.237 111.237 111.237 111.237 111.237 111.237 
111.237 111.237 111.237 111.237 111.237 111.237 111.237 111.237 111.237 111.237 
111.237 111.237 111.237 111.237 111.237 111.237 111.237 111.237 111.237 111.237 
111.237 111.237 111.237 111.237 111.237 111.237 111.237 111.237 111.237 111.237 
111.237 111.237 111.237 111.237 111.237 111.237 111.237 111.237 111.237 111.237 
111.237 111.237 111.237 111.237 111.237 111.237 111.237 111.237 111.237 111.237 
111.237 111.237 111.237 111.237 111.237 111.237 111.237 111.237 111.237 111.237 
111.237 111.237 111.237 111.237 111.237 111.237 111.237 111.237 111.237 111.237 
111.237 111.237 111.237 111.237 111.237 111.237 111.237 111.237 111.237 111.237 