# vtk DataFile Version 2.0
vtkObjects
ASCII
DATASET UNSTRUCTURED_GRID
POINTS 160 float
-26.6234 -127.633 5.89447
-16.6234 -127.633 5.89447
-26.6234 -117.633 5.89447
-16.6234 -117.633 5.89447
-26.6234 -127.633 15.8945
-16.6234 -127.633 15.8945
-26.6234 -117.633 15.8945
-16.6234 -117.633 15.8945
-21.6234 -125.723 2.8043
-21.6234 -119.542 2.8043
-21.6234 -125.723 18.9846
-21.6234 -119.542 18.9846
-24.7136 -130.723 10.8945
-18.5333 -130.723 10.8945
-24.7136 -114.542 10.8945
-18.5333 -114.542 10.8945
-29.7136 -122.633 7.8043
-29.7136 -122.633 13.9846
-13.5333 -122.633 7.8043
-13.5333 -122.633 13.9846
-12.2078 -45.8775 -1.36851
-2.20781 -45.8775 -1.36851
-12.2078 -35.8775 -1.36851
-2.20781 -35.8775 -1.36851
-12.2078 -45.8775 8.63149
-2.20781 -45.8775 8.63149
-12.2078 -35.8775 8.63149
-2.20781 -35.8775 8.63149
-7.20781 -43.9677 -4.45868
-7.20781 -37.7873 -4.45868
-7.20781 -43.9677 11.7217
-7.20781 -37.7873 11.7217
-10.298 -48.9677 3.63149
-4.11764 -48.9677 3.63149
-10.298 -32.7873 3.63149
-4.11764 -32.7873 3.63149
-15.298 -40.8775 0.541319
-15.298 -40.8775 6.72166
0.882362 -40.8775 0.541319
0.882362 -40.8775 6.72166
2.20781 35.8775 -8.63149
12.2078 35.8775 -8.63149
2.20781 45.8775 -8.63149
12.2078 45.8775 -8.63149
2.20781 35.8775 1.36851
12.2078 35.8775 1.36851
2.20781 45.8775 1.36851
12.2078 45.8775 1.36851
7.20781 37.7873 -11.7217
7.20781 43.9677 -11.7217
7.20781 37.7873 4.45868
7.20781 43.9677 4.45868
4.11764 32.7873 -3.63149
10.298 32.7873 -3.63149
4.11764 48.9677 -3.63149
10.298 48.9677 -3.63149
-0.882362 40.8775 -6.72166
-0.882362 40.8775 -0.541319
15.298 40.8775 -6.72166
15.298 40.8775 -0.541319
16.6234 117.633 -15.8945
26.6234 117.633 -15.8945
16.6234 127.633 -15.8945
26.6234 127.633 -15.8945
16.6234 117.633 -5.89447
26.6234 117.633 -5.89447
16.6234 127.633 -5.89447
26.6234 127.633 -5.89447
21.6234 119.542 -18.9846
21.6234 125.723 -18.9846
21.6234 119.542 -2.8043
21.6234 125.723 -2.8043
18.5333 114.542 -10.8945
24.7136 114.542 -10.8945
18.5333 130.723 -10.8945
24.7136 130.723 -10.8945
13.5333 122.633 -13.9846
13.5333 122.633 -7.8043
29.7136 122.633 -13.9846
29.7136 122.633 -7.8043
108.514 -266.78 58.1269
118.514 -266.78 58.1269
108.514 -256.78 58.1269
118.514 -256.78 58.1269
108.514 -266.78 68.1269
118.514 -266.78 68.1269
108.514 -256.78 68.1269
118.514 -256.78 68.1269
113.514 -264.87 55.0368
113.514 -258.69 55.0368
113.514 -264.87 71.2171
113.514 -258.69 71.2171
110.423 -269.87 63.1269
116.604 -269.87 63.1269
110.423 -253.69 63.1269
116.604 -253.69 63.1269
105.423 -261.78 60.0368
105.423 -261.78 66.2171
121.604 -261.78 60.0368
121.604 -261.78 66.2171
225.661 213.793 131.112
235.661 213.793 131.112
225.661 223.793 131.112
235.661 223.793 131.112
225.661 213.793 141.112
235.661 213.793 141.112
225.661 223.793 141.112
235.661 223.793 141.112
230.661 215.702 128.022
230.661 221.883 128.022
230.661 215.702 144.202
230.661 221.883 144.202
227.57 210.702 136.112
233.751 210.702 136.112
227.57 226.883 136.112
233.751 226.883 136.112
222.57 218.793 133.022
222.57 218.793 139.202
238.751 218.793 133.022
238.751 218.793 139.202
-202.477 -219.402 -25.8238
-192.477 -219.402 -25.8238
-202.477 -209.402 -25.8238
-192.477 -209.402 -25.8238
-202.477 -219.402 -15.8238
-192.477 -219.402 -15.8238
-202.477 -209.402 -15.8238
-192.477 -209.402 -15.8238
-197.477 -217.492 -28.9139
-197.477 -211.312 -28.9139
-197.477 -217.492 -12.7336
-197.477 -211.312 -12.7336
-200.567 -222.492 -20.8238
-194.387 -222.492 -20.8238
-200.567 -206.312 -20.8238
-194.387 -206.312 -20.8238
-205.567 -214.402 -23.9139
-205.567 -214.402 -17.7336
-189.387 -214.402 -23.9139
-189.387 -214.402 -17.7336
-151.697 252.389 -183.415
-141.697 252.389 -183.415
-151.697 262.389 -183.415
-141.697 262.389 -183.415
-151.697 252.389 -173.415
-141.697 252.389 -173.415
-151.697 262.389 -173.415
-141.697 262.389 -173.415
-146.697 254.299 -186.505
-146.697 260.479 -186.505
-146.697 254.299 -170.325
-146.697 260.479 -170.325
-149.787 249.299 -178.415
-143.607 249.299 -178.415
-149.787 265.479 -178.415
-143.607 265.479 -178.415
-154.787 257.389 -181.505
-154.787 257.389 -175.325
-138.607 257.389 -181.505
-138.607 257.389 -175.325
CELLS 232 928
3 0 8 1
3 0 13 1
3 0 13 12
3 21 18 1
3 21 18 38
3 4 0 12
3 4 17 16
3 4 0 16
3 36 17 16
3 36 17 37
3 5 13 1
3 5 18 1
3 5 18 19
3 5 13 12
3 5 4 12
3 5 4 10
3 9 2 16
3 9 0 16
3 9 0 8
3 28 23 29
3 28 23 38
3 28 21 38
3 28 9 8
3 28 9 29
3 28 8 1
3 28 21 1
3 22 36 37
3 22 26 34
3 22 26 37
3 22 23 29
3 22 35 34
3 22 35 23
3 22 9 2
3 22 9 29
3 22 2 16
3 22 36 16
3 30 5 10
3 30 5 25
3 39 18 19
3 39 18 38
3 39 5 19
3 39 5 25
3 6 17 37
3 6 26 37
3 27 26 34
3 27 26 31
3 27 35 34
3 27 30 25
3 27 39 25
3 27 30 31
3 27 23 38
3 27 35 23
3 27 39 38
3 11 4 17
3 11 4 10
3 11 6 17
3 11 30 31
3 11 30 10
3 11 26 31
3 11 6 26
3 61 58 41
3 61 58 78
3 44 40 56
3 44 57 56
3 44 40 52
3 76 57 56
3 76 57 77
3 53 58 59
3 53 58 41
3 53 45 59
3 53 48 41
3 53 40 48
3 53 40 52
3 53 44 52
3 53 45 50
3 53 44 50
3 49 42 56
3 49 40 56
3 49 40 48
3 68 63 69
3 68 63 78
3 68 61 78
3 68 49 48
3 68 49 69
3 68 48 41
3 68 61 41
3 62 76 77
3 62 66 74
3 62 66 77
3 62 49 42
3 62 49 69
3 62 42 56
3 62 76 56
3 79 58 59
3 79 58 78
3 75 66 74
3 75 66 71
3 75 67 71
3 75 63 69
3 75 62 74
3 75 62 69
3 75 63 78
3 75 79 78
3 75 79 67
3 46 57 77
3 46 66 77
3 51 44 57
3 51 44 50
3 51 46 57
3 51 70 71
3 51 70 50
3 51 66 71
3 51 46 66
3 65 67 71
3 65 79 67
3 65 70 71
3 65 45 59
3 65 79 59
3 65 45 50
3 65 70 50
3 107 103 118
3 107 119 118
3 107 103 115
3 107 115 114
3 107 106 114
3 107 106 111
3 116 97 117
3 116 97 96
3 105 111 110
3 105 107 111
3 105 107 119
3 105 85 90
3 105 90 110
3 105 119 99
3 105 85 99
3 93 84 90
3 93 85 90
3 93 84 92
3 80 97 96
3 80 84 92
3 80 84 97
3 80 89 82
3 80 82 96
3 80 89 88
3 102 103 109
3 102 103 115
3 102 115 114
3 102 106 117
3 102 106 114
3 102 116 117
3 102 89 82
3 102 89 109
3 102 116 96
3 102 82 96
3 104 106 117
3 104 106 111
3 104 111 110
3 104 84 90
3 104 90 110
3 104 97 117
3 104 84 97
3 83 103 109
3 83 89 109
3 98 119 118
3 98 119 99
3 98 103 118
3 98 83 103
3 81 93 92
3 81 80 88
3 81 80 92
3 81 85 99
3 81 93 85
3 81 98 99
3 81 89 88
3 81 83 89
3 81 98 83
3 141 128 148
3 141 128 121
3 155 143 158
3 155 159 158
3 155 159 147
3 120 128 121
3 120 133 121
3 120 133 132
3 138 141 158
3 138 141 121
3 137 157 156
3 137 156 136
3 137 124 132
3 137 120 132
3 137 120 136
3 137 124 130
3 137 131 130
3 137 131 126
3 149 141 158
3 149 143 158
3 149 141 148
3 149 155 143
3 149 142 154
3 149 155 154
3 140 142 156
3 140 149 142
3 140 149 148
3 140 128 148
3 140 120 128
3 140 120 136
3 140 156 136
3 139 159 158
3 139 138 158
3 139 159 147
3 139 127 147
3 146 137 126
3 146 137 157
3 146 142 154
3 146 157 156
3 146 142 156
3 125 133 132
3 125 124 130
3 125 124 132
3 125 131 130
3 125 139 127
3 125 131 127
3 125 133 121
3 125 138 121
3 125 139 138
3 151 131 126
3 151 146 126
3 151 127 147
3 151 131 127
3 151 155 154
3 151 155 147
3 151 146 154
CELL_TYPES 232
5 5 5 5 5 5 5 5 5 5 
5 5 5 5 5 5 5 5 5 5 
5 5 5 5 5 5 5 5 5 5 
5 5 5 5 5 5 5 5 5 5 
5 5 5 5 5 5 5 5 5 5 
5 5 5 5 5 5 5 5 5 5 
5 5 5 5 5 5 5 5 5 5 
5 5 5 5 5 5 5 5 5 5 
5 5 5 5 5 5 5 5 5 5 
5 5 5 5 5 5 5 5 5 5 
5 5 5 5 5 5 5 5 5 5 
5 5 5 5 5 5 5 5 5 5 
5 5 5 5 5 5 5 5 5 5 
5 5 5 5 5 5 5 5 5 5 
5 5 5 5 5 5 5 5 5 5 
5 5 5 5 5 5 5 5 5 5 
5 5 5 5 5 5 5 5 5 5 
5 5 5 5 5 5 5 5 5 5 
5 5 5 5 5 5 5 5 5 5 
5 5 5 5 5 5 5 5 5 5 
5 5 5 5 5 5 5 5 5 5 
5 5 5 5 5 5 5 5 5 5 
5 5 5 5 5 5 5 5 5 5 
5 5 
CELL_DATA 232
SCALARS Well_Number float 1
LOOKUP_TABLE default
0 0 0 0 0 0 0 0 0 
0 0 0 0 0 0 0 0 0 0 
0 0 0 0 0 0 0 0 0 0 
0 0 0 0 0 0 0 0 0 0 
0 0 0 0 0 0 0 0 0 0 
0 0 0 0 0 0 0 0 0 0 
0 1 1 1 1 1 1 1 1 1 
1 1 1 1 1 1 1 1 1 1 
1 1 1 1 1 1 1 1 1 1 
1 1 1 1 1 1 1 1 1 1 
1 1 1 1 1 1 1 1 1 1 
1 1 1 1 1 1 1 1 1 1 
1 2 2 2 2 2 2 2 2 2 
2 2 2 2 2 2 2 2 2 2 
2 2 2 2 2 2 2 2 2 2 
2 2 2 2 2 2 2 2 2 2 
2 2 2 2 2 2 2 2 2 2 
2 2 2 2 2 2 2 3 3 3 
3 3 3 3 3 3 3 3 3 3 
3 3 3 3 3 3 3 3 3 3 
3 3 3 3 3 3 3 3 3 3 
3 3 3 3 3 3 3 3 3 3 
3 3 3 3 3 3 3 3 3 3 
3 3 3 SCALARS Well_Type float 1
LOOKUP_TABLE default
-1 -1 -1 -1 -1 -1 -1 -1 -1 
-1 -1 -1 -1 -1 -1 -1 -1 -1 -1 
-1 -1 -1 -1 -1 -1 -1 -1 -1 -1 
-1 -1 -1 -1 -1 -1 -1 -1 -1 -1 
-1 -1 -1 -1 -1 -1 -1 -1 -1 -1 
-1 -1 -1 -1 -1 -1 -1 -1 -1 -1 
-1 -1 -1 -1 -1 -1 -1 -1 -1 -1 
-1 -1 -1 -1 -1 -1 -1 -1 -1 -1 
-1 -1 -1 -1 -1 -1 -1 -1 -1 -1 
-1 -1 -1 -1 -1 -1 -1 -1 -1 -1 
-1 -1 -1 -1 -1 -1 -1 -1 -1 -1 
-1 -1 -1 -1 -1 -1 -1 -1 -1 -1 
-1 -2 -2 -2 -2 -2 -2 -2 -2 -2 
-2 -2 -2 -2 -2 -2 -2 -2 -2 -2 
-2 -2 -2 -2 -2 -2 -2 -2 -2 -2 
-2 -2 -2 -2 -2 -2 -2 -2 -2 -2 
-2 -2 -2 -2 -2 -2 -2 -2 -2 -2 
-2 -2 -2 -2 -2 -2 -2 -2 -2 -2 
-2 -2 -2 -2 -2 -2 -2 -2 -2 -2 
-2 -2 -2 -2 -2 -2 -2 -2 -2 -2 
-2 -2 -2 -2 -2 -2 -2 -2 -2 -2 
-2 -2 -2 -2 -2 -2 -2 -2 -2 -2 
-2 -2 -2 -2 -2 -2 -2 -2 -2 -2 
-2 -2 -2 SCALARS Inner_Radius float 1
LOOKUP_TABLE default
0.127 0.127 0.127 0.127 0.127 0.127 0.127 0.127 0.127 
0.127 0.127 0.127 0.127 0.127 0.127 0.127 0.127 0.127 0.127 
0.127 0.127 0.127 0.127 0.127 0.127 0.127 0.127 0.127 0.127 
0.127 0.127 0.127 0.127 0.127 0.127 0.127 0.127 0.127 0.127 
0.127 0.127 0.127 0.127 0.127 0.127 0.127 0.127 0.127 0.127 
0.127 0.127 0.127 0.127 0.127 0.127 0.127 0.127 0.127 0.127 
0.127 0.127 0.127 0.127 0.127 0.127 0.127 0.127 0.127 0.127 
0.127 0.127 0.127 0.127 0.127 0.127 0.127 0.127 0.127 0.127 
0.127 0.127 0.127 0.127 0.127 0.127 0.127 0.127 0.127 0.127 
0.127 0.127 0.127 0.127 0.127 0.127 0.127 0.127 0.127 0.127 
0.127 0.127 0.127 0.127 0.127 0.127 0.127 0.127 0.127 0.127 
0.127 0.127 0.127 0.127 0.127 0.127 0.127 0.127 0.127 0.127 
0.127 0.127 0.127 0.127 0.127 0.127 0.127 0.127 0.127 0.127 
0.127 0.127 0.127 0.127 0.127 0.127 0.127 0.127 0.127 0.127 
0.127 0.127 0.127 0.127 0.127 0.127 0.127 0.127 0.127 0.127 
0.127 0.127 0.127 0.127 0.127 0.127 0.127 0.127 0.127 0.127 
0.127 0.127 0.127 0.127 0.127 0.127 0.127 0.127 0.127 0.127 
0.127 0.127 0.127 0.127 0.127 0.127 0.127 0.127 0.127 0.127 
0.127 0.127 0.127 0.127 0.127 0.127 0.127 0.127 0.127 0.127 
0.127 0.127 0.127 0.127 0.127 0.127 0.127 0.127 0.127 0.127 
0.127 0.127 0.127 0.127 0.127 0.127 0.127 0.127 0.127 0.127 
0.127 0.127 0.127 0.127 0.127 0.127 0.127 0.127 0.127 0.127 
0.127 0.127 0.127 0.127 0.127 0.127 0.127 0.127 0.127 0.127 
0.127 0.127 0.127 SCALARS Roughness float 1
LOOKUP_TABLE default
80 80 80 80 80 80 80 80 80 
80 80 80 80 80 80 80 80 80 80 
80 80 80 80 80 80 80 80 80 80 
80 80 80 80 80 80 80 80 80 80 
80 80 80 80 80 80 80 80 80 80 
80 80 80 80 80 80 80 80 80 80 
80 80 80 80 80 80 80 80 80 80 
80 80 80 80 80 80 80 80 80 80 
80 80 80 80 80 80 80 80 80 80 
80 80 80 80 80 80 80 80 80 80 
80 80 80 80 80 80 80 80 80 80 
80 80 80 80 80 80 80 80 80 80 
80 80 80 80 80 80 80 80 80 80 
80 80 80 80 80 80 80 80 80 80 
80 80 80 80 80 80 80 80 80 80 
80 80 80 80 80 80 80 80 80 80 
80 80 80 80 80 80 80 80 80 80 
80 80 80 80 80 80 80 80 80 80 
80 80 80 80 80 80 80 80 80 80 
80 80 80 80 80 80 80 80 80 80 
80 80 80 80 80 80 80 80 80 80 
80 80 80 80 80 80 80 80 80 80 
80 80 80 80 80 80 80 80 80 80 
80 80 80 
