# vtk DataFile Version 2.0
vtkObjects
ASCII
DATASET UNSTRUCTURED_GRID
POINTS 760 float
-23.623 -124.633 8.894
-19.623 -124.633 8.894
-23.623 -120.633 8.894
-19.623 -120.633 8.894
-23.623 -124.633 12.894
-19.623 -124.633 12.894
-23.623 -120.633 12.894
-19.623 -120.633 12.894
-21.623 -123.869 7.65793
-21.623 -121.397 7.65793
-21.623 -123.869 14.1301
-21.623 -121.397 14.1301
-22.8591 -125.869 10.894
-20.3869 -125.869 10.894
-22.8591 -119.397 10.894
-20.3869 -119.397 10.894
-24.8591 -122.633 9.65793
-24.8591 -122.633 12.1301
-18.3869 -122.633 9.65793
-18.3869 -122.633 12.1301
-15.141 -76.528 14.621
-11.141 -76.528 14.621
-15.141 -72.528 14.621
-11.141 -72.528 14.621
-15.141 -76.528 18.621
-11.141 -76.528 18.621
-15.141 -72.528 18.621
-11.141 -72.528 18.621
-13.141 -75.7641 13.3849
-13.141 -73.2919 13.3849
-13.141 -75.7641 19.8571
-13.141 -73.2919 19.8571
-14.3771 -77.7641 16.621
-11.9049 -77.7641 16.621
-14.3771 -71.2919 16.621
-11.9049 -71.2919 16.621
-16.3771 -74.528 15.3849
-16.3771 -74.528 17.8571
-9.90493 -74.528 15.3849
-9.90493 -74.528 17.8571
-15.141 -76.528 14.621
-11.141 -76.528 14.621
-15.141 -72.528 14.621
-11.141 -72.528 14.621
-15.141 -76.528 18.621
-11.141 -76.528 18.621
-15.141 -72.528 18.621
-11.141 -72.528 18.621
-13.141 -75.7641 13.3849
-13.141 -73.2919 13.3849
-13.141 -75.7641 19.8571
-13.141 -73.2919 19.8571
-14.3771 -77.7641 16.621
-11.9049 -77.7641 16.621
-14.3771 -71.2919 16.621
-11.9049 -71.2919 16.621
-16.3771 -74.528 15.3849
-16.3771 -74.528 17.8571
-9.90493 -74.528 15.3849
-9.90493 -74.528 17.8571
-15.141 -76.528 9.621
-11.141 -76.528 9.621
-15.141 -72.528 9.621
-11.141 -72.528 9.621
-15.141 -76.528 13.621
-11.141 -76.528 13.621
-15.141 -72.528 13.621
-11.141 -72.528 13.621
-13.141 -75.7641 8.38493
-13.141 -73.2919 8.38493
-13.141 -75.7641 14.8571
-13.141 -73.2919 14.8571
-14.3771 -77.7641 11.621
-11.9049 -77.7641 11.621
-14.3771 -71.2919 11.621
-11.9049 -71.2919 11.621
-16.3771 -74.528 10.3849
-16.3771 -74.528 12.8571
-9.90493 -74.528 10.3849
-9.90493 -74.528 12.8571
-15.141 -76.528 9.621
-11.141 -76.528 9.621
-15.141 -72.528 9.621
-11.141 -72.528 9.621
-15.141 -76.528 13.621
-11.141 -76.528 13.621
-15.141 -72.528 13.621
-11.141 -72.528 13.621
-13.141 -75.7641 8.38493
-13.141 -73.2919 8.38493
-13.141 -75.7641 14.8571
-13.141 -73.2919 14.8571
-14.3771 -77.7641 11.621
-11.9049 -77.7641 11.621
-14.3771 -71.2919 11.621
-11.9049 -71.2919 11.621
-16.3771 -74.528 10.3849
-16.3771 -74.528 12.8571
-9.90493 -74.528 10.3849
-9.90493 -74.528 12.8571
48 -82 -27
52 -82 -27
48 -78 -27
52 -78 -27
48 -82 -23
52 -82 -23
48 -78 -23
52 -78 -23
50 -81.2361 -28.2361
50 -78.7639 -28.2361
50 -81.2361 -21.7639
50 -78.7639 -21.7639
48.7639 -83.2361 -25
51.2361 -83.2361 -25
48.7639 -76.7639 -25
51.2361 -76.7639 -25
46.7639 -80 -26.2361
46.7639 -80 -23.7639
53.2361 -80 -26.2361
53.2361 -80 -23.7639
-15.141 -76.528 14.621
-11.141 -76.528 14.621
-15.141 -72.528 14.621
-11.141 -72.528 14.621
-15.141 -76.528 18.621
-11.141 -76.528 18.621
-15.141 -72.528 18.621
-11.141 -72.528 18.621
-13.141 -75.7641 13.3849
-13.141 -73.2919 13.3849
-13.141 -75.7641 19.8571
-13.141 -73.2919 19.8571
-14.3771 -77.7641 16.621
-11.9049 -77.7641 16.621
-14.3771 -71.2919 16.621
-11.9049 -71.2919 16.621
-16.3771 -74.528 15.3849
-16.3771 -74.528 17.8571
-9.90493 -74.528 15.3849
-9.90493 -74.528 17.8571
-9.208 -42.878 1.631
-5.208 -42.878 1.631
-9.208 -38.878 1.631
-5.208 -38.878 1.631
-9.208 -42.878 5.631
-5.208 -42.878 5.631
-9.208 -38.878 5.631
-5.208 -38.878 5.631
-7.208 -42.1141 0.394932
-7.208 -39.6419 0.394932
-7.208 -42.1141 6.86707
-7.208 -39.6419 6.86707
-8.44407 -44.1141 3.631
-5.97193 -44.1141 3.631
-8.44407 -37.6419 3.631
-5.97193 -37.6419 3.631
-10.4441 -40.878 2.39493
-10.4441 -40.878 4.86707
-3.97193 -40.878 2.39493
-3.97193 -40.878 4.86707
5.208 38.878 -5.631
9.208 38.878 -5.631
5.208 42.878 -5.631
9.208 42.878 -5.631
5.208 38.878 -1.631
9.208 38.878 -1.631
5.208 42.878 -1.631
9.208 42.878 -1.631
7.208 39.6419 -6.86707
7.208 42.1141 -6.86707
7.208 39.6419 -0.394932
7.208 42.1141 -0.394932
5.97193 37.6419 -3.631
8.44407 37.6419 -3.631
5.97193 44.1141 -3.631
8.44407 44.1141 -3.631
3.97193 40.878 -4.86707
3.97193 40.878 -2.39493
10.4441 40.878 -4.86707
10.4441 40.878 -2.39493
9.234 61.713 2.34
13.234 61.713 2.34
9.234 65.713 2.34
13.234 65.713 2.34
9.234 61.713 6.34
13.234 61.713 6.34
9.234 65.713 6.34
13.234 65.713 6.34
11.234 62.4769 1.10393
11.234 64.9491 1.10393
11.234 62.4769 7.57607
11.234 64.9491 7.57607
9.99793 60.4769 4.34
12.4701 60.4769 4.34
9.99793 66.9491 4.34
12.4701 66.9491 4.34
7.99793 63.713 3.10393
7.99793 63.713 5.57607
14.4701 63.713 3.10393
14.4701 63.713 5.57607
9.234 61.713 2.34
13.234 61.713 2.34
9.234 65.713 2.34
13.234 65.713 2.34
9.234 61.713 6.34
13.234 61.713 6.34
9.234 65.713 6.34
13.234 65.713 6.34
11.234 62.4769 1.10393
11.234 64.9491 1.10393
11.234 62.4769 7.57607
11.234 64.9491 7.57607
9.99793 60.4769 4.34
12.4701 60.4769 4.34
9.99793 66.9491 4.34
12.4701 66.9491 4.34
7.99793 63.713 3.10393
7.99793 63.713 5.57607
14.4701 63.713 3.10393
14.4701 63.713 5.57607
9.234 61.713 -2.66
13.234 61.713 -2.66
9.234 65.713 -2.66
13.234 65.713 -2.66
9.234 61.713 1.34
13.234 61.713 1.34
9.234 65.713 1.34
13.234 65.713 1.34
11.234 62.4769 -3.89607
11.234 64.9491 -3.89607
11.234 62.4769 2.57607
11.234 64.9491 2.57607
9.99793 60.4769 -0.66
12.4701 60.4769 -0.66
9.99793 66.9491 -0.66
12.4701 66.9491 -0.66
7.99793 63.713 -1.89607
7.99793 63.713 0.576068
14.4701 63.713 -1.89607
14.4701 63.713 0.576068
9.234 61.713 -2.66
13.234 61.713 -2.66
9.234 65.713 -2.66
13.234 65.713 -2.66
9.234 61.713 1.34
13.234 61.713 1.34
9.234 65.713 1.34
13.234 65.713 1.34
11.234 62.4769 -3.89607
11.234 64.9491 -3.89607
11.234 62.4769 2.57607
11.234 64.9491 2.57607
9.99793 60.4769 -0.66
12.4701 60.4769 -0.66
9.99793 66.9491 -0.66
12.4701 66.9491 -0.66
7.99793 63.713 -1.89607
7.99793 63.713 0.576068
14.4701 63.713 -1.89607
14.4701 63.713 0.576068
-52 78 23
-48 78 23
-52 82 23
-48 82 23
-52 78 27
-48 78 27
-52 82 27
-48 82 27
-50 78.7639 21.7639
-50 81.2361 21.7639
-50 78.7639 28.2361
-50 81.2361 28.2361
-51.2361 76.7639 25
-48.7639 76.7639 25
-51.2361 83.2361 25
-48.7639 83.2361 25
-53.2361 80 23.7639
-53.2361 80 26.2361
-46.7639 80 23.7639
-46.7639 80 26.2361
9.234 61.713 2.34
13.234 61.713 2.34
9.234 65.713 2.34
13.234 65.713 2.34
9.234 61.713 6.34
13.234 61.713 6.34
9.234 65.713 6.34
13.234 65.713 6.34
11.234 62.4769 1.10393
11.234 64.9491 1.10393
11.234 62.4769 7.57607
11.234 64.9491 7.57607
9.99793 60.4769 4.34
12.4701 60.4769 4.34
9.99793 66.9491 4.34
12.4701 66.9491 4.34
7.99793 63.713 3.10393
7.99793 63.713 5.57607
14.4701 63.713 3.10393
14.4701 63.713 5.57607
19.623 120.633 -12.894
23.623 120.633 -12.894
19.623 124.633 -12.894
23.623 124.633 -12.894
19.623 120.633 -8.894
23.623 120.633 -8.894
19.623 124.633 -8.894
23.623 124.633 -8.894
21.623 121.397 -14.1301
21.623 123.869 -14.1301
21.623 121.397 -7.65793
21.623 123.869 -7.65793
20.3869 119.397 -10.894
22.8591 119.397 -10.894
20.3869 125.869 -10.894
22.8591 125.869 -10.894
18.3869 122.633 -12.1301
18.3869 122.633 -9.65793
24.8591 122.633 -12.1301
24.8591 122.633 -9.65793
111.514 -263.78 61.127
115.514 -263.78 61.127
111.514 -259.78 61.127
115.514 -259.78 61.127
111.514 -263.78 65.127
115.514 -263.78 65.127
111.514 -259.78 65.127
115.514 -259.78 65.127
113.514 -263.016 59.8909
113.514 -260.544 59.8909
113.514 -263.016 66.3631
113.514 -260.544 66.3631
112.278 -265.016 63.127
114.75 -265.016 63.127
112.278 -258.544 63.127
114.75 -258.544 63.127
110.278 -261.78 61.8909
110.278 -261.78 64.3631
116.75 -261.78 61.8909
116.75 -261.78 64.3631
146.775 -119.129 93.095
150.775 -119.129 93.095
146.775 -115.129 93.095
150.775 -115.129 93.095
146.775 -119.129 97.095
150.775 -119.129 97.095
146.775 -115.129 97.095
150.775 -115.129 97.095
148.775 -118.365 91.8589
148.775 -115.893 91.8589
148.775 -118.365 98.3311
148.775 -115.893 98.3311
147.539 -120.365 95.095
150.011 -120.365 95.095
147.539 -113.893 95.095
150.011 -113.893 95.095
145.539 -117.129 93.8589
145.539 -117.129 96.3311
152.011 -117.129 93.8589
152.011 -117.129 96.3311
146.775 -119.129 93.095
150.775 -119.129 93.095
146.775 -115.129 93.095
150.775 -115.129 93.095
146.775 -119.129 97.095
150.775 -119.129 97.095
146.775 -115.129 97.095
150.775 -115.129 97.095
148.775 -118.365 91.8589
148.775 -115.893 91.8589
148.775 -118.365 98.3311
148.775 -115.893 98.3311
147.539 -120.365 95.095
150.011 -120.365 95.095
147.539 -113.893 95.095
150.011 -113.893 95.095
145.539 -117.129 93.8589
145.539 -117.129 96.3311
152.011 -117.129 93.8589
152.011 -117.129 96.3311
146.775 -119.129 88.095
150.775 -119.129 88.095
146.775 -115.129 88.095
150.775 -115.129 88.095
146.775 -119.129 92.095
150.775 -119.129 92.095
146.775 -115.129 92.095
150.775 -115.129 92.095
148.775 -118.365 86.8589
148.775 -115.893 86.8589
148.775 -118.365 93.3311
148.775 -115.893 93.3311
147.539 -120.365 90.095
150.011 -120.365 90.095
147.539 -113.893 90.095
150.011 -113.893 90.095
145.539 -117.129 88.8589
145.539 -117.129 91.3311
152.011 -117.129 88.8589
152.011 -117.129 91.3311
146.775 -119.129 88.095
150.775 -119.129 88.095
146.775 -115.129 88.095
150.775 -115.129 88.095
146.775 -119.129 92.095
150.775 -119.129 92.095
146.775 -115.129 92.095
150.775 -115.129 92.095
148.775 -118.365 86.8589
148.775 -115.893 86.8589
148.775 -118.365 93.3311
148.775 -115.893 93.3311
147.539 -120.365 90.095
150.011 -120.365 90.095
147.539 -113.893 90.095
150.011 -113.893 90.095
145.539 -117.129 88.8589
145.539 -117.129 91.3311
152.011 -117.129 88.8589
152.011 -117.129 91.3311
48 -82 -27
52 -82 -27
48 -78 -27
52 -78 -27
48 -82 -23
52 -82 -23
48 -78 -23
52 -78 -23
50 -81.2361 -28.2361
50 -78.7639 -28.2361
50 -81.2361 -21.7639
50 -78.7639 -21.7639
48.7639 -83.2361 -25
51.2361 -83.2361 -25
48.7639 -76.7639 -25
51.2361 -76.7639 -25
46.7639 -80 -26.2361
46.7639 -80 -23.7639
53.2361 -80 -26.2361
53.2361 -80 -23.7639
146.775 -119.129 93.095
150.775 -119.129 93.095
146.775 -115.129 93.095
150.775 -115.129 93.095
[...]
CELL_DATA 1012
SCALARS Pipe_Number float 1
LOOKUP_TABLE default
0 0 0 0 0 0 0 0 0 
0 0 0 0 0 0 0 0 0 0 
0 0 0 0 0 0 0 0 0 0 
0 0 0 0 0 0 0 0 0 0 
0 0 0 0 0 0 0 0 0 0 
0 0 0 0 0 0 0 1 1 1 
1 1 1 1 1 1 1 1 1 1 
1 1 1 1 1 1 1 1 1 1 
1 1 1 1 1 1 1 1 1 1 
1 1 1 1 1 1 1 1 1 1 
1 2 2 2 2 2 2 2 2 2 
2 2 2 2 2 2 2 2 2 2 
2 2 2 2 2 2 2 2 2 2 
2 2 2 2 2 2 2 2 2 2 
2 2 2 2 2 2 2 2 2 2 
2 2 2 2 2 2 2 2 2 2 
2 3 3 3 3 3 3 3 3 3 
3 3 3 3 3 3 3 3 3 3 
3 3 3 3 3 3 3 3 3 3 
3 3 3 3 3 3 3 3 3 3 
3 3 3 3 3 3 3 3 3 3 
3 3 3 3 3 3 3 4 4 4 
4 4 4 4 4 4 4 4 4 4 
4 4 4 4 4 4 4 4 4 4 
4 4 4 4 4 4 4 4 4 4 
4 4 4 4 4 4 4 4 4 4 
4 4 4 4 4 4 4 4 4 4 
4 4 4 5 5 5 5 5 5 5 
5 5 5 5 5 5 5 5 5 5 
5 5 5 5 5 5 5 5 5 5 
5 5 5 5 5 5 5 5 5 5 
5 5 5 5 5 5 5 6 6 6 
6 6 6 6 6 6 6 6 6 6 
6 6 6 6 6 6 6 6 6 6 
6 6 6 6 6 6 6 6 6 6 
6 6 6 6 6 6 6 6 6 6 
6 6 6 6 6 6 6 6 6 6 
6 6 6 7 7 7 7 7 7 7 
7 7 7 7 7 7 7 7 7 7 
7 7 7 7 7 7 7 7 7 7 
7 7 7 7 7 7 7 7 7 7 
7 7 7 7 7 7 7 7 7 7 
7 7 7 7 7 7 7 7 7 8 
8 8 8 8 8 8 8 8 8 8 
8 8 8 8 8 8 8 8 8 8 
8 8 8 8 8 8 8 8 8 8 
8 8 8 8 8 8 8 8 8 8 
8 8 8 8 8 8 8 8 8 8 
8 8 8 8 8 9 9 9 9 9 
9 9 9 9 9 9 9 9 9 9 
9 9 9 9 9 9 9 9 9 9 
9 9 9 9 9 9 9 9 9 9 
9 9 9 9 9 9 9 9 9 10 
10 10 10 10 10 10 10 10 10 10 
10 10 10 10 10 10 10 10 10 10 
10 10 10 10 10 10 10 10 10 10 
10 10 10 10 10 10 10 10 10 10 
10 10 10 10 10 10 10 10 10 10 
10 10 10 10 10 11 11 11 11 11 
11 11 11 11 11 11 11 11 11 11 
11 11 11 11 11 11 11 11 11 11 
11 11 11 11 11 11 11 11 11 11 
11 11 11 11 11 11 11 11 11 11 
11 11 11 11 11 11 11 11 11 11 
11 11 11 11 11 12 12 12 12 12 
12 12 12 12 12 12 12 12 12 12 
12 12 12 12 12 12 12 12 12 12 
12 12 12 12 12 12 12 12 12 12 
12 12 12 12 12 12 12 12 12 12 
12 12 12 12 12 12 12 12 12 12 
12 13 13 13 13 13 13 13 13 13 
13 13 13 13 13 13 13 13 13 13 
13 13 13 13 13 13 13 13 13 13 
13 13 13 13 13 13 13 13 13 13 
13 13 13 13 13 13 13 13 13 13 
13 13 13 13 13 13 13 14 14 14 
14 14 14 14 14 14 14 14 14 14 
14 14 14 14 14 14 14 14 14 14 
14 14 14 14 14 14 14 14 14 14 
14 14 14 14 14 14 14 14 14 14 
14 15 15 15 15 15 15 15 15 15 
15 15 15 15 15 15 15 15 15 15 
15 15 15 15 15 15 15 15 15 15 
15 15 15 15 15 15 15 15 15 15 
15 15 15 15 15 15 15 15 15 15 
15 15 15 15 15 15 15 16 16 16 
16 16 16 16 16 16 16 16 16 16 
16 16 16 16 16 16 16 16 16 16 
16 16 16 16 16 16 16 16 16 16 
16 16 16 16 16 16 16 16 16 16 
16 17 17 17 17 17 17 17 17 17 
17 17 17 17 17 17 17 17 17 17 
17 17 17 17 17 17 17 17 17 17 
17 17 17 17 17 17 17 17 17 17 
17 17 17 17 17 17 17 17 17 17 
17 17 17 17 17 17 17 18 18 18 
18 18 18 18 18 18 18 18 18 18 
18 18 18 18 18 18 18 18 18 18 
18 18 18 18 18 18 18 18 18 18 
18 18 18 18 18 18 18 18 18 18 
18 18 18 18 18 18 18 18 18 18 
18 18 18 SCALARS Type float 1
LOOKUP_TABLE default
-1 -1 -1 -1 -1 -1 -1 -1 -1 
-1 -1 -1 -1 -1 -1 -1 -1 -1 -1 
-1 -1 -1 -1 -1 -1 -1 -1 -1 -1 
-1 -1 -1 -1 -1 -1 -1 -1 -1 -1 
-1 -1 -1 -1 -1 -1 -1 -1 -1 -1 
-1 -1 -1 -1 -1 -1 -1 4 4 4 
4 4 4 4 4 4 4 4 4 4 
4 4 4 4 4 4 4 4 4 4 
4 4 4 4 4 4 4 4 4 4 
4 4 4 4 4 4 4 4 4 4 
4 1 1 1 1 1 1 1 1 1 
1 1 1 1 1 1 1 1 1 1 
1 1 1 1 1 1 1 1 1 1 
1 1 1 1 1 1 1 1 1 1 
1 1 1 1 1 1 1 1 1 1 
1 1 1 1 1 1 1 1 1 1 
1 -1 -1 -1 -1 -1 -1 -1 -1 -1 
-1 -1 -1 -1 -1 -1 -1 -1 -1 -1 
-1 -1 -1 -1 -1 -1 -1 -1 -1 -1 
-1 -1 -1 -1 -1 -1 -1 -1 -1 -1 
-1 -1 -1 -1 -1 -1 -1 -1 -1 -1 
-1 -1 -1 -1 -1 -1 -1 -1 -1 -1 
-1 -1 -1 -1 -1 -1 -1 -1 -1 -1 
-1 -1 -1 -1 -1 -1 -1 -1 -1 -1 
-1 -1 -1 -1 -1 -1 -1 -1 -1 -1 
-1 -1 -1 -1 -1 -1 -1 -1 -1 -1 
-1 -1 -1 -1 -1 -1 -1 -1 -1 -1 
-1 -1 -1 4 4 4 4 4 4 4 
4 4 4 4 4 4 4 4 4 4 
4 4 4 4 4 4 4 4 4 4 
4 4 4 4 4 4 4 4 4 4 
4 4 4 4 4 4 4 1 1 1 
1 1 1 1 1 1 1 1 1 1 
1 1 1 1 1 1 1 1 1 1 
1 1 1 1 1 1 1 1 1 1 
1 1 1 1 1 1 1 1 1 1 
1 1 1 1 1 1 1 1 1 1 
1 1 1 -1 -1 -1 -1 -1 -1 -1 
-1 -1 -1 -1 -1 -1 -1 -1 -1 -1 
-1 -1 -1 -1 -1 -1 -1 -1 -1 -1 
-1 -1 -1 -1 -1 -1 -1 -1 -1 -1 
-1 -1 -1 -1 -1 -1 -1 -1 -1 -1 
-1 -1 -1 -1 -1 -1 -1 -1 -1 -2 
-2 -2 -2 -2 -2 -2 -2 -2 -2 -2 
-2 -2 -2 -2 -2 -2 -2 -2 -2 -2 
-2 -2 -2 -2 -2 -2 -2 -2 -2 -2 
-2 -2 -2 -2 -2 -2 -2 -2 -2 -2 
-2 -2 -2 -2 -2 -2 -2 -2 -2 -2 
-2 -2 -2 -2 -2 4 4 4 4 4 
4 4 4 4 4 4 4 4 4 4 
4 4 4 4 4 4 4 4 4 4 
4 4 4 4 4 4 4 4 4 4 
4 4 4 4 4 4 4 4 4 1 
1 1 1 1 1 1 1 1 1 1 
1 1 1 1 1 1 1 1 1 1 
1 1 1 1 1 1 1 1 1 1 
1 1 1 1 1 1 1 1 1 1 
1 1 1 1 1 1 1 1 1 1 
1 1 1 1 1 -2 -2 -2 -2 -2 
-2 -2 -2 -2 -2 -2 -2 -2 -2 -2 
-2 -2 -2 -2 -2 -2 -2 -2 -2 -2 
-2 -2 -2 -2 -2 -2 -2 -2 -2 -2 
-2 -2 -2 -2 -2 -2 -2 -2 -2 -2 
-2 -2 -2 -2 -2 -2 -2 -2 -2 -2 
-2 -2 -2 -2 -2 -2 -2 -2 -2 -2 
-2 -2 -2 -2 -2 -2 -2 -2 -2 -2 
-2 -2 -2 -2 -2 -2 -2 -2 -2 -2 
-2 -2 -2 -2 -2 -2 -2 -2 -2 -2 
-2 -2 -2 -2 -2 -2 -2 -2 -2 -2 
-2 -2 -2 -2 -2 -2 -2 -2 -2 -2 
-2 -2 -2 -2 -2 -2 -2 -2 -2 -2 
-2 -2 -2 -2 -2 -2 -2 -2 -2 -2 
-2 -2 -2 -2 -2 -2 -2 -2 -2 -2 
-2 -2 -2 -2 -2 -2 -2 -2 -2 -2 
-2 -2 -2 -2 -2 -2 -2 -2 -2 -2 
-2 -2 -2 -2 -2 -2 -2 4 4 4 
4 4 4 4 4 4 4 4 4 4 
4 4 4 4 4 4 4 4 4 4 
4 4 4 4 4 4 4 4 4 4 
4 4 4 4 4 4 4 4 4 4 
4 1 1 1 1 1 1 1 1 1 
1 1 1 1 1 1 1 1 1 1 
1 1 1 1 1 1 1 1 1 1 
1 1 1 1 1 1 1 1 1 1 
1 1 1 1 1 1 1 1 1 1 
1 1 1 1 1 1 1 4 4 4 
4 4 4 4 4 4 4 4 4 4 
4 4 4 4 4 4 4 4 4 4 
4 4 4 4 4 4 4 4 4 4 
4 4 4 4 4 4 4 4 4 4 
4 1 1 1 1 1 1 1 1 1 
1 1 1 1 1 1 1 1 1 1 
1 1 1 1 1 1 1 1 1 1 
1 1 1 1 1 1 1 1 1 1 
1 1 1 1 1 1 1 1 1 1 
1 1 1 1 1 1 1 -2 -2 -2 
-2 -2 -2 -2 -2 -2 -2 -2 -2 -2 
-2 -2 -2 -2 -2 -2 -2 -2 -2 -2 
-2 -2 -2 -2 -2 -2 -2 -2 -2 -2 
-2 -2 -2 -2 -2 -2 -2 -2 -2 -2 
-2 -2 -2 -2 -2 -2 -2 -2 -2 -2 
-2 -2 -2 SCALARS Pipe_Flow_Rate_m3_s float 1
LOOKUP_TABLE default
0.00300168 0.00300168 0.00300168 0.00300168 0.00300168 0.00300168 0.00300168 0.00300168 0.00300168 
0.00300168 0.00300168 0.00300168 0.00300168 0.00300168 0.00300168 0.00300168 0.00300168 0.00300168 0.00300168 
0.00300168 0.00300168 0.00300168 0.00300168 0.00300168 0.00300168 0.00300168 0.00300168 0.00300168 0.00300168 
0.00300168 0.00300168 0.00300168 0.00300168 0.00300168 0.00300168 0.00300168 0.00300168 0.00300168 0.00300168 
0.00300168 0.00300168 0.00300168 0.00300168 0.00300168 0.00300168 0.00300168 0.00300168 0.00300168 0.00300168 
0.00300168 0.00300168 0.00300168 0.00300168 0.00300168 0.00300168 0.00300168 0.00299876 0.00299876 0.00299876 
0.00299876 0.00299876 0.00299876 0.00299876 0.00299876 0.00299876 0.00299876 0.00299876 0.00299876 0.00299876 
0.00299876 0.00299876 0.00299876 0.00299876 0.00299876 0.00299876 0.00299876 0.00299876 0.00299876 0.00299876 
0.00299876 0.00299876 0.00299876 0.00299876 0.00299876 0.00299876 0.00299876 0.00299876 0.00299876 0.00299876 
0.00299876 0.00299876 0.00299876 0.00299876 0.00299876 0.00299876 0.00299876 0.00299876 0.00299876 0.00299876 
0.00299876 0.00300447 0.00300447 0.00300447 0.00300447 0.00300447 0.00300447 0.00300447 0.00300447 0.00300447 
0.00300447 0.00300447 0.00300447 0.00300447 0.00300447 0.00300447 0.00300447 0.00300447 0.00300447 0.00300447 
0.00300447 0.00300447 0.00300447 0.00300447 0.00300447 0.00300447 0.00300447 0.00300447 0.00300447 0.00300447 
0.00300447 0.00300447 0.00300447 0.00300447 0.00300447 0.00300447 0.00300447 0.00300447 0.00300447 0.00300447 
0.00300447 0.00300447 0.00300447 0.00300447 0.00300447 0.00300447 0.00300447 0.00300447 0.00300447 0.00300447 
0.00300447 0.00300447 0.00300447 0.00300447 0.00300447 0.00300447 0.00300447 0.00300447 0.00300447 0.00300447 
0.00300447 0.000106554 0.000106554 0.000106554 0.000106554 0.000106554 0.000106554 0.000106554 0.000106554 0.000106554 
0.000106554 0.000106554 0.000106554 0.000106554 0.000106554 0.000106554 0.000106554 0.000106554 0.000106554 0.000106554 
0.000106554 0.000106554 0.000106554 0.000106554 0.000106554 0.000106554 0.000106554 0.000106554 0.000106554 0.000106554 
0.000106554 0.000106554 0.000106554 0.000106554 0.000106554 0.000106554 0.000106554 0.000106554 0.000106554 0.000106554 
0.000106554 0.000106554 0.000106554 0.000106554 0.000106554 0.000106554 0.000106554 0.000106554 0.000106554 0.000106554 
0.000106554 0.000106554 0.000106554 0.000106554 0.000106554 0.000106554 0.000106554 0.00300352 0.00300352 0.00300352 
0.00300352 0.00300352 0.00300352 0.00300352 0.00300352 0.00300352 0.00300352 0.00300352 0.00300352 0.00300352 
0.00300352 0.00300352 0.00300352 0.00300352 0.00300352 0.00300352 0.00300352 0.00300352 0.00300352 0.00300352 
0.00300352 0.00300352 0.00300352 0.00300352 0.00300352 0.00300352 0.00300352 0.00300352 0.00300352 0.00300352 
0.00300352 0.00300352 0.00300352 0.00300352 0.00300352 0.00300352 0.00300352 0.00300352 0.00300352 0.00300352 
0.00300352 0.00300352 0.00300352 0.00300352 0.00300352 0.00300352 0.00300352 0.00300352 0.00300352 0.00300352 
0.00300352 0.00300352 0.00300352 0.00299804 0.00299804 0.00299804 0.00299804 0.00299804 0.00299804 0.00299804 
0.00299804 0.00299804 0.00299804 0.00299804 0.00299804 0.00299804 0.00299804 0.00299804 0.00299804 0.00299804 
0.00299804 0.00299804 0.00299804 0.00299804 0.00299804 0.00299804 0.00299804 0.00299804 0.00299804 0.00299804 
0.00299804 0.00299804 0.00299804 0.00299804 0.00299804 0.00299804 0.00299804 0.00299804 0.00299804 0.00299804 
0.00299804 0.00299804 0.00299804 0.00299804 0.00299804 0.00299804 0.00299804 0.00300164 0.00300164 0.00300164 
0.00300164 0.00300164 0.00300164 0.00300164 0.00300164 0.00300164 0.00300164 0.00300164 0.00300164 0.00300164 
0.00300164 0.00300164 0.00300164 0.00300164 0.00300164 0.00300164 0.00300164 0.00300164 0.00300164 0.00300164 
0.00300164 0.00300164 0.00300164 0.00300164 0.00300164 0.00300164 0.00300164 0.00300164 0.00300164 0.00300164 
0.00300164 0.00300164 0.00300164 0.00300164 0.00300164 0.00300164 0.00300164 0.00300164 0.00300164 0.00300164 
0.00300164 0.00300164 0.00300164 0.00300164 0.00300164 0.00300164 0.00300164 0.00300164 0.00300164 0.00300164 
0.00300164 0.00300164 0.00300164 2.8968e-05 2.8968e-05 2.8968e-05 2.8968e-05 2.8968e-05 2.8968e-05 2.8968e-05 
2.8968e-05 2.8968e-05 2.8968e-05 2.8968e-05 2.8968e-05 2.8968e-05 2.8968e-05 2.8968e-05 2.8968e-05 2.8968e-05 
2.8968e-05 2.8968e-05 2.8968e-05 2.8968e-05 2.8968e-05 2.8968e-05 2.8968e-05 2.8968e-05 2.8968e-05 2.8968e-05 
2.8968e-05 2.8968e-05 2.8968e-05 2.8968e-05 2.8968e-05 2.8968e-05 2.8968e-05 2.8968e-05 2.8968e-05 2.8968e-05 
2.8968e-05 2.8968e-05 2.8968e-05 2.8968e-05 2.8968e-05 2.8968e-05 2.8968e-05 2.8968e-05 2.8968e-05 2.8968e-05 
2.8968e-05 2.8968e-05 2.8968e-05 2.8968e-05 2.8968e-05 2.8968e-05 2.8968e-05 2.8968e-05 2.8968e-05 0.00273954 
0.00273954 0.00273954 0.00273954 0.00273954 0.00273954 0.00273954 0.00273954 0.00273954 0.00273954 0.00273954 
0.00273954 0.00273954 0.00273954 0.00273954 0.00273954 0.00273954 0.00273954 0.00273954 0.00273954 0.00273954 
0.00273954 0.00273954 0.00273954 0.00273954 0.00273954 0.00273954 0.00273954 0.00273954 0.00273954 0.00273954 
0.00273954 0.00273954 0.00273954 0.00273954 0.00273954 0.00273954 0.00273954 0.00273954 0.00273954 0.00273954 
0.00273954 0.00273954 0.00273954 0.00273954 0.00273954 0.00273954 0.00273954 0.00273954 0.00273954 0.00273954 
0.00273954 0.00273954 0.00273954 0.00273954 0.00273954 0.00274286 0.00274286 0.00274286 0.00274286 0.00274286 
0.00274286 0.00274286 0.00274286 0.00274286 0.00274286 0.00274286 0.00274286 0.00274286 0.00274286 0.00274286 
0.00274286 0.00274286 0.00274286 0.00274286 0.00274286 0.00274286 0.00274286 0.00274286 0.00274286 0.00274286 
0.00274286 0.00274286 0.00274286 0.00274286 0.00274286 0.00274286 0.00274286 0.00274286 0.00274286 0.00274286 
0.00274286 0.00274286 0.00274286 0.00274286 0.00274286 0.00274286 0.00274286 0.00274286 0.00274286 0.00273707 
0.00273707 0.00273707 0.00273707 0.00273707 0.00273707 0.00273707 0.00273707 0.00273707 0.00273707 0.00273707 
0.00273707 0.00273707 0.00273707 0.00273707 0.00273707 0.00273707 0.00273707 0.00273707 0.00273707 0.00273707 
0.00273707 0.00273707 0.00273707 0.00273707 0.00273707 0.00273707 0.00273707 0.00273707 0.00273707 0.00273707 
0.00273707 0.00273707 0.00273707 0.00273707 0.00273707 0.00273707 0.00273707 0.00273707 0.00273707 0.00273707 
0.00273707 0.00273707 0.00273707 0.00273707 0.00273707 0.00273707 0.00273707 0.00273707 0.00273707 0.00273707 
0.00273707 0.00273707 0.00273707 0.00273707 0.00273707 1.99246e-05 1.99246e-05 1.99246e-05 1.99246e-05 1.99246e-05 
1.99246e-05 1.99246e-05 1.99246e-05 1.99246e-05 1.99246e-05 1.99246e-05 1.99246e-05 1.99246e-05 1.99246e-05 1.99246e-05 
1.99246e-05 1.99246e-05 1.99246e-05 1.99246e-05 1.99246e-05 1.99246e-05 1.99246e-05 1.99246e-05 1.99246e-05 1.99246e-05 
1.99246e-05 1.99246e-05 1.99246e-05 1.99246e-05 1.99246e-05 1.99246e-05 1.99246e-05 1.99246e-05 1.99246e-05 1.99246e-05 
1.99246e-05 1.99246e-05 1.99246e-05 1.99246e-05 1.99246e-05 1.99246e-05 1.99246e-05 1.99246e-05 1.99246e-05 1.99246e-05 
1.99246e-05 1.99246e-05 1.99246e-05 1.99246e-05 1.99246e-05 1.99246e-05 1.99246e-05 1.99246e-05 1.99246e-05 1.99246e-05 
1.99246e-05 1.99246e-05 1.99246e-05 1.99246e-05 1.99246e-05 0.00325938 0.00325938 0.00325938 0.00325938 0.00325938 
0.00325938 0.00325938 0.00325938 0.00325938 0.00325938 0.00325938 0.00325938 0.00325938 0.00325938 0.00325938 
0.00325938 0.00325938 0.00325938 0.00325938 0.00325938 0.00325938 0.00325938 0.00325938 0.00325938 0.00325938 
0.00325938 0.00325938 0.00325938 0.00325938 0.00325938 0.00325938 0.00325938 0.00325938 0.00325938 0.00325938 
0.00325938 0.00325938 0.00325938 0.00325938 0.00325938 0.00325938 0.00325938 0.00325938 0.00325938 0.00325938 
0.00325938 0.00325938 0.00325938 0.00325938 0.00325938 0.00325938 0.00325938 0.00325938 0.00325938 0.00325938 
0.00325938 0.00300004 0.00300004 0.00300004 0.00300004 0.00300004 0.00300004 0.00300004 0.00300004 0.00300004 
0.00300004 0.00300004 0.00300004 0.00300004 0.00300004 0.00300004 0.00300004 0.00300004 0.00300004 0.00300004 
0.00300004 0.00300004 0.00300004 0.00300004 0.00300004 0.00300004 0.00300004 0.00300004 0.00300004 0.00300004 
0.00300004 0.00300004 0.00300004 0.00300004 0.00300004 0.00300004 0.00300004 0.00300004 0.00300004 0.00300004 
0.00300004 0.00300004 0.00300004 0.00300004 0.00300004 0.00300004 0.00300004 0.00300004 0.00300004 0.00300004 
0.00300004 0.00300004 0.00300004 0.00300004 0.00300004 0.00300004 0.00300004 0.000263716 0.000263716 0.000263716 
0.000263716 0.000263716 0.000263716 0.000263716 0.000263716 0.000263716 0.000263716 0.000263716 0.000263716 0.000263716 
0.000263716 0.000263716 0.000263716 0.000263716 0.000263716 0.000263716 0.000263716 0.000263716 0.000263716 0.000263716 
0.000263716 0.000263716 0.000263716 0.000263716 0.000263716 0.000263716 0.000263716 0.000263716 0.000263716 0.000263716 
0.000263716 0.000263716 0.000263716 0.000263716 0.000263716 0.000263716 0.000263716 0.000263716 0.000263716 0.000263716 
0.000263716 0.000254757 0.000254757 0.000254757 0.000254757 0.000254757 0.000254757 0.000254757 0.000254757 0.000254757 
0.000254757 0.000254757 0.000254757 0.000254757 0.000254757 0.000254757 0.000254757 0.000254757 0.000254757 0.000254757 
0.000254757 0.000254757 0.000254757 0.000254757 0.000254757 0.000254757 0.000254757 0.000254757 0.000254757 0.000254757 
0.000254757 0.000254757 0.000254757 0.000254757 0.000254757 0.000254757 0.000254757 0.000254757 0.000254757 0.000254757 
0.000254757 0.000254757 0.000254757 0.000254757 0.000254757 0.000254757 0.000254757 0.000254757 0.000254757 0.000254757 
0.000254757 0.000254757 0.000254757 0.000254757 0.000254757 0.000254757 0.000254757 0.00299784 0.00299784 0.00299784 
0.00299784 0.00299784 0.00299784 0.00299784 0.00299784 0.00299784 0.00299784 0.00299784 0.00299784 0.00299784 
0.00299784 0.00299784 0.00299784 0.00299784 0.00299784 0.00299784 0.00299784 0.00299784 0.00299784 0.00299784 
0.00299784 0.00299784 0.00299784 0.00299784 0.00299784 0.00299784 0.00299784 0.00299784 0.00299784 0.00299784 
0.00299784 0.00299784 0.00299784 0.00299784 0.00299784 0.00299784 0.00299784 0.00299784 0.00299784 0.00299784 
0.00299784 0.00300668 0.00300668 0.00300668 0.00300668 0.00300668 0.00300668 0.00300668 0.00300668 0.00300668 
0.00300668 0.00300668 0.00300668 0.00300668 0.00300668 0.00300668 0.00300668 0.00300668 0.00300668 0.00300668 
0.00300668 0.00300668 0.00300668 0.00300668 0.00300668 0.00300668 0.00300668 0.00300668 0.00300668 0.00300668 
0.00300668 0.00300668 0.00300668 0.00300668 0.00300668 0.00300668 0.00300668 0.00300668 0.00300668 0.00300668 
0.00300668 0.00300668 0.00300668 0.00300668 0.00300668 0.00300668 0.00300668 0.00300668 0.00300668 0.00300668 
0.00300668 0.00300668 0.00300668 0.00300668 0.00300668 0.00300668 0.00300668 5.3342e-05 5.3342e-05 5.3342e-05 
5.3342e-05 5.3342e-05 5.3342e-05 5.3342e-05 5.3342e-05 5.3342e-05 5.3342e-05 5.3342e-05 5.3342e-05 5.3342e-05 
5.3342e-05 5.3342e-05 5.3342e-05 5.3342e-05 5.3342e-05 5.3342e-05 5.3342e-05 5.3342e-05 5.3342e-05 5.3342e-05 
5.3342e-05 5.3342e-05 5.3342e-05 5.3342e-05 5.3342e-05 5.3342e-05 5.3342e-05 5.3342e-05 5.3342e-05 5.3342e-05 
5.3342e-05 5.3342e-05 5.3342e-05 5.3342e-05 5.3342e-05 5.3342e-05 5.3342e-05 5.3342e-05 5.3342e-05 5.3342e-05 
5.3342e-05 5.3342e-05 5.3342e-05 5.3342e-05 5.3342e-05 5.3342e-05 5.3342e-05 5.3342e-05 5.3342e-05 5.3342e-05 
5.3342e-05 5.3342e-05 5.3342e-05 SCALARS Height_m float 1
LOOKUP_TABLE default
0.127 0.127 0.127 0.127 0.127 0.127 0.127 0.127 0.127 
0.127 0.127 0.127 0.127 0.127 0.127 0.127 0.127 0.127 0.127 
0.127 0.127 0.127 0.127 0.127 0.127 0.127 0.127 0.127 0.127 
0.127 0.127 0.127 0.127 0.127 0.127 0.127 0.127 0.127 0.127 
0.127 0.127 0.127 0.127 0.127 0.127 0.127 0.127 0.127 0.127 
0.127 0.127 0.127 0.127 0.127 0.127 0.127 0.398982 0.398982 0.398982 
0.398982 0.398982 0.398982 0.398982 0.398982 0.398982 0.398982 0.398982 0.398982 0.398982 
0.398982 0.398982 0.398982 0.398982 0.398982 0.398982 0.398982 0.398982 0.398982 0.398982 
0.398982 0.398982 0.398982 0.398982 0.398982 0.398982 0.398982 0.398982 0.398982 0.398982 
0.398982 0.398982 0.398982 0.398982 0.398982 0.398982 0.398982 0.398982 0.398982 0.398982 
0.398982 259.8 259.8 259.8 259.8 259.8 259.8 259.8 259.8 259.8 
259.8 259.8 259.8 259.8 259.8 259.8 259.8 259.8 259.8 259.8 
259.8 259.8 259.8 259.8 259.8 259.8 259.8 259.8 259.8 259.8 
259.8 259.8 259.8 259.8 259.8 259.8 259.8 259.8 259.8 259.8 
259.8 259.8 259.8 259.8 259.8 259.8 259.8 259.8 259.8 259.8 
259.8 259.8 259.8 259.8 259.8 259.8 259.8 259.8 259.8 259.8 
259.8 0.127 0.127 0.127 0.127 0.127 0.127 0.127 0.127 0.127 
0.127 0.127 0.127 0.127 0.127 0.127 0.127 0.127 0.127 0.127 
0.127 0.127 0.127 0.127 0.127 0.127 0.127 0.127 0.127 0.127 
0.127 0.127 0.127 0.127 0.127 0.127 0.127 0.127 0.127 0.127 
0.127 0.127 0.127 0.127 0.127 0.127 0.127 0.127 0.127 0.127 
0.127 0.127 0.127 0.127 0.127 0.127 0.127 0.127 0.127 0.127 
0.127 0.127 0.127 0.127 0.127 0.127 0.127 0.127 0.127 0.127 
0.127 0.127 0.127 0.127 0.127 0.127 0.127 0.127 0.127 0.127 
0.127 0.127 0.127 0.127 0.127 0.127 0.127 0.127 0.127 0.127 
0.127 0.127 0.127 0.127 0.127 0.127 0.127 0.127 0.127 0.127 
0.127 0.127 0.127 0.127 0.127 0.127 0.127 0.127 0.127 0.127 
0.127 0.127 0.127 0.398982 0.398982 0.398982 0.398982 0.398982 0.398982 0.398982 
0.398982 0.398982 0.398982 0.398982 0.398982 0.398982 0.398982 0.398982 0.398982 0.398982 
0.398982 0.398982 0.398982 0.398982 0.398982 0.398982 0.398982 0.398982 0.398982 0.398982 
0.398982 0.398982 0.398982 0.398982 0.398982 0.398982 0.398982 0.398982 0.398982 0.398982 
0.398982 0.398982 0.398982 0.398982 0.398982 0.398982 0.398982 216.5 216.5 216.5 
216.5 216.5 216.5 216.5 216.5 216.5 216.5 216.5 216.5 216.5 
216.5 216.5 216.5 216.5 216.5 216.5 216.5 216.5 216.5 216.5 
216.5 216.5 216.5 216.5 216.5 216.5 216.5 216.5 216.5 216.5 
216.5 216.5 216.5 216.5 216.5 216.5 216.5 216.5 216.5 216.5 
216.5 216.5 216.5 216.5 216.5 216.5 216.5 216.5 216.5 216.5 
216.5 216.5 216.5 0.127 0.127 0.127 0.127 0.127 0.127 0.127 
0.127 0.127 0.127 0.127 0.127 0.127 0.127 0.127 0.127 0.127 
0.127 0.127 0.127 0.127 0.127 0.127 0.127 0.127 0.127 0.127 
0.127 0.127 0.127 0.127 0.127 0.127 0.127 0.127 0.127 0.127 
0.127 0.127 0.127 0.127 0.127 0.127 0.127 0.127 0.127 0.127 
0.127 0.127 0.127 0.127 0.127 0.127 0.127 0.127 0.127 0.127 
0.127 0.127 0.127 0.127 0.127 0.127 0.127 0.127 0.127 0.127 
0.127 0.127 0.127 0.127 0.127 0.127 0.127 0.127 0.127 0.127 
0.127 0.127 0.127 0.127 0.127 0.127 0.127 0.127 0.127 0.127 